System: uname_result(system='Darwin', node='Joses-MacBook-Pro-2.local', release='21.6.0', version='Darwin Kernel Version 21.6.0: Mon Feb 19 20:24:34 PST 2024; root:xnu-8020.240.18.707.4~1/RELEASE_X86_64', machine='x86_64')  Threads 4
Python 3.12.3 | packaged by conda-forge | (main, Apr 15 2024, 18:50:49) [Clang 16.0.6 ]
numpy 1.26.4  scipy 1.13.0
Date: Fri May 31 09:38:36 2024
PySCF version 2.4.0
PySCF path  /Users/Josete/miniforge3/envs/pyscf/lib/python3.12/site-packages/pyscf

[CONFIG] conf_file None
[INPUT] verbose = 5
[INPUT] max_memory = 4000 
[INPUT] num. atoms = 12
[INPUT] num. electrons = 42
[INPUT] charge = 0
[INPUT] spin (= nelec alpha-beta = 2S) = 0
[INPUT] symmetry False subgroup None
[INPUT] Mole.unit = angstrom
[INPUT] Symbol           X                Y                Z      unit          X                Y                Z       unit  Magmom
[INPUT]  1 C     -0.659140000000  -1.210340000000   3.986830000000 AA   -1.245594077746  -2.287211117606   7.534016805200 Bohr   0.0
[INPUT]  2 C      0.737980000000  -1.210340000000   4.020590000000 AA    1.394580085407  -2.287211117606   7.597813959165 Bohr   0.0
[INPUT]  3 C     -1.357710000000  -0.000060000000   3.969900000000 AA   -2.565700056583  -0.000113383567   7.502023741911 Bohr   0.0
[INPUT]  4 C      1.436530000000  -0.000040000000   4.037410000000 AA    2.714648269721  -0.000075589045   7.629599152580 Bohr   0.0
[INPUT]  5 C     -0.659150000000   1.210240000000   3.986850000000 AA   -1.245612975007   2.287022144994   7.534054599722 Bohr   0.0
[INPUT]  6 C      0.737970000000   1.210240000000   4.020610000000 AA    1.394561188145   2.287022144994   7.597851753688 Bohr   0.0
[INPUT]  7 H     -1.204470000000  -2.155200000000   3.973690000000 AA   -2.276118425255  -4.072737743663   7.509185803923 Bohr   0.0
[INPUT]  8 H      1.283320000000  -2.155170000000   4.033820000000 AA    2.425123330177  -4.072681051879   7.622815035793 Bohr   0.0
[INPUT]  9 H     -2.448390000000  -0.000060000000   3.943420000000 AA   -4.626786546124  -0.000113383567   7.451983794132 Bohr   0.0
[INPUT] 10 H      2.527220000000  -0.000040000000   4.063690000000 AA    4.775753656523  -0.000075589045   7.679261155134 Bohr   0.0
[INPUT] 11 H     -1.204480000000   2.155090000000   3.973730000000 AA   -2.276137322516   4.072529873789   7.509261392968 Bohr   0.0
[INPUT] 12 H      1.283300000000   2.155080000000   4.033860000000 AA    2.425085535654   4.072510976528   7.622890624838 Bohr   0.0
[INPUT] ---------------- BASIS SET ---------------- 
[INPUT] l, kappa, [nprim/nctr], expnt,             c_1 c_2 ...
[INPUT] H
[INPUT] 0    0    [3    /1   ]  13.010701         0.019682158
                                1.9622572         0.13796524
                                0.44453796        0.47831935
[INPUT] 0    0    [1    /1   ]  0.12194962           1
[INPUT] 1    0    [1    /1   ]  0.8                  1
[INPUT] C
[INPUT] 0    0    [5    /1   ]  1238.4016938      0.0054568832082
                                186.29004992      0.040638409211
                                42.251176346      0.18025593888
                                11.676557932      0.46315121755
                                3.5930506482      0.44087173314
[INPUT] 0    0    [1    /1   ]  0.40245147363        1
[INPUT] 0    0    [1    /1   ]  0.13090182668        1
[INPUT] 1    0    [3    /1   ]  9.4680970621      0.038387871728
                                2.0103545142      0.21117025112
                                0.54771004707     0.51328172114
[INPUT] 1    0    [1    /1   ]  0.15268613795        1
[INPUT] 2    0    [1    /1   ]  0.8                  1

nuclear repulsion = 202.962251250615
number of shells = 54
number of NR pGTOs = 186
number of NR cGTOs = 114
basis = def2-svp
ecp = {}
CPU time:         5.11


******** <class 'pyscf.dft.rks.RKS'> ********
method = RKS
initial guess = minao
damping factor = 0
level_shift factor = 0
DIIS = <class 'pyscf.scf.diis.CDIIS'>
diis_start_cycle = 1
diis_space = 8
SCF conv_tol = 1e-09
SCF conv_tol_grad = None
SCF max_cycles = 300
direct_scf = True
direct_scf_tol = 1e-13
chkfile to save SCF result = /var/folders/_x/hdd0n3v13rgc0_p09wk_rwl40000gn/T/tmpz1i89x9o
max_memory 4000 MB (current use 0 MB)
XC library pyscf.dft.libxc version 6.2.2
    S. Lehtola, C. Steigemann, M. J.T. Oliveira, and M. A.L. Marques.,  SoftwareX 7, 1–5 (2018)
XC functionals = b3lyp
    P. J. Stephens, F. J. Devlin, C. F. Chabalowski, and M. J. Frisch.,  J. Phys. Chem. 98, 11623 (1994)
radial grids: 
    Treutler-Ahlrichs [JCP 102, 346 (1995); DOI:10.1063/1.469408] (M4) radial grids
    
becke partition: Becke, JCP 88, 2547 (1988); DOI:10.1063/1.454033
pruning grids: <function nwchem_prune at 0x117a42480>
grids dens level: 3
symmetrized grids: False
atomic radii adjust function: <function treutler_atomic_radii_adjust at 0x117a42a20>
small_rho_cutoff = 1e-07
Set gradient conv threshold to 3.16228e-05
Initial guess from minao.
atom C rad-grids = 75, ang-grids = [ 50  50  50  50  50  50  50  50  50  50  50  50  50  50  50  50  50  50
  50  50  50  50  50  86  86  86  86  86  86  86  86  86  86 266 266 266
 266 266 266 266 302 302 302 302 302 302 302 302 302 302 302 302 302 302
 302 302 302 302 302 302 266 266 266 266 266 266 266 266 266 266 266 266
 266 266 266]
atom H rad-grids = 50, ang-grids = [ 50  50  50  50  50  50  50  50  50  50  50  50  50  50  86  86  86  86
 266 266 266 266 302 302 302 302 302 302 302 302 302 302 302 302 302 266
 266 266 266 266 266 266 266 266 266 266 266 266 266 266]
tot_boxes 2448, boxes in each direction [15 14  7]
Padding 4 grids
tot grids = 143560
Drop grids 22703
prune_by_density_: 7 padding grids
    CPU time for setting up grids      2.28 sec, wall time      0.88 sec
nelec by numeric integration = 41.98270108042834
    CPU time for vxc      3.66 sec, wall time      1.37 sec
E1 = -710.0062272243338  Ecoul = 308.9951175031873  Exc = -34.77623701802374
init E= -232.825095488555
cond(S) = 19963.873029089027
    CPU time for initialize scf      9.68 sec, wall time      3.38 sec
  HOMO = -0.303918813497077  LUMO = -0.0926106769280444
  mo_energy =
[-10.27756236 -10.27679527 -10.27679455 -10.27595594 -10.2759553
 -10.27575117  -1.03109434  -0.87593031  -0.87592669  -0.68783393
  -0.68783036  -0.58504965  -0.51151773  -0.51027065  -0.47182667
  -0.47182393  -0.41881123  -0.38958949  -0.38958422  -0.30392196
  -0.30391881  -0.09261068  -0.09260713   0.01504792   0.05994613
   0.06220828   0.06221015   0.09987034   0.09987253   0.12319621
   0.2151187    0.21512229   0.22689976   0.22690953   0.31019469
   0.35524715   0.37089063   0.37089361   0.37570397   0.39237941
   0.41002088   0.44342256   0.4434297    0.46603044   0.48144792
   0.48145207   0.5424428    0.54244666   0.56910297   0.56910593
   0.60580001   0.60580226   0.61621587   0.65479935   0.65480321
   0.65634168   0.6738849    0.70132774   0.70134304   0.76960808
   0.82226339   0.9658157    0.96582573   1.0862088    1.16190502
   1.17810135   1.17810413   1.21691595   1.21692728   1.23379841
   1.23380222   1.46651452   1.56751348   1.56811882   1.61514409
   1.64765518   1.67021143   1.67021522   1.68298806   1.68299011
   1.69260689   1.6926153    1.76350381   1.76352305   1.86405609
   1.91248792   1.9124908    1.91265814   1.91489415   1.91490077
   2.05351577   2.05351894   2.05866934   2.06595059   2.2066858
   2.20670131   2.21790441   2.217908     2.26603557   2.26604294
   2.47396472   2.50832784   2.50833275   2.55078454   2.64685398
   2.64685997   2.64877863   2.76249072   2.76250145   2.80288993
   3.02985065   3.02986176   3.1490811    3.55731167]
nelec by numeric integration = 42.00002479541929
    CPU time for vxc      3.68 sec, wall time      1.36 sec
E1 = -715.6554334725674  Ecoul = 315.5847649170061  Exc = -34.943282699079596
cycle= 1 E= -232.051700004025  delta_E= 0.773  |g|= 0.326  |ddm|= 4.58
    CPU time for cycle= 1      3.90 sec, wall time      1.43 sec
  HOMO = -0.200789897044222  LUMO = 0.0420005017546046
  mo_energy =
[-10.08436678 -10.08421516 -10.08421227 -10.08381552 -10.0838128
 -10.08369879  -0.77500676  -0.67668326  -0.67668228  -0.54606645
  -0.54606398  -0.47634491  -0.426313    -0.37940997  -0.37165725
  -0.37165524  -0.31187429  -0.29521647  -0.29521194  -0.20079132
  -0.2007899    0.0420005    0.04200482   0.07448826   0.11392032
   0.11392141   0.14913956   0.14914113   0.16873809   0.19715252
   0.3273646    0.32736724   0.33846522   0.33847581   0.4043582
   0.44055219   0.44984607   0.44984948   0.46557876   0.49735026
   0.51787896   0.53838337   0.5383908    0.57347364   0.58170161
   0.58170522   0.64479622   0.64480076   0.66693765   0.66694082
   0.70193698   0.70193986   0.71315523   0.77846712   0.77853299
   0.77853794   0.78584425   0.82193511   0.82194991   0.89001056
   0.94203152   1.06154119   1.06155484   1.19379346   1.28067883
   1.28068117   1.28855597   1.28856839   1.31755341   1.34741765
   1.34742109   1.52668184   1.68582764   1.68667666   1.68706027
   1.78411465   1.78412477   1.79315765   1.79316128   1.79922222
   1.79922421   1.8049624    1.85050522   1.85052396   1.96623775
   2.02075199   2.02082318   2.02082567   2.02257652   2.02258161
   2.1290082    2.17366524   2.19649344   2.19649648   2.3639975
   2.36401382   2.36542651   2.36543142   2.40375803   2.40376571
   2.61370245   2.65759401   2.65760079   2.70875253   2.75934382
   2.76162839   2.76163471   2.92637621   2.92638696   2.94420219
   3.1785877    3.17859685   3.30652143   3.72446206]
nelec by numeric integration = 42.00002827916691
    CPU time for vxc      3.57 sec, wall time      1.55 sec
E1 = -709.8724949583453  Ecoul = 309.382069617747  Exc = -34.52094110251235
cycle= 2 E= -232.049115192495  delta_E= 0.00258  |g|= 0.356  |ddm|= 1.03
    CPU time for cycle= 2      3.79 sec, wall time      1.61 sec
  HOMO = -0.255934599626399  LUMO = -0.00826477927969258
  mo_energy =
[-1.01892131e+01 -1.01890603e+01 -1.01890594e+01 -1.01886647e+01
 -1.01886639e+01 -1.01885500e+01 -8.46780552e-01 -7.37434926e-01
 -7.37432341e-01 -5.95944762e-01 -5.95942063e-01 -5.21013331e-01
 -4.54690656e-01 -4.47682125e-01 -4.21452718e-01 -4.21450276e-01
 -3.68859998e-01 -3.44981804e-01 -3.44977050e-01 -2.55937187e-01
 -2.55934600e-01 -8.26477928e-03 -8.26105157e-03  5.84020301e-02
  9.98406565e-02  9.98419323e-02  1.37918221e-01  1.37920116e-01
  1.49479979e-01  1.58962921e-01  2.87345478e-01  2.87348511e-01
  3.00916841e-01  3.00926964e-01  3.65492429e-01  4.09239266e-01
  4.19421903e-01  4.19425533e-01  4.34568317e-01  4.63437318e-01
  4.70143004e-01  5.04936995e-01  5.04944842e-01  5.38212309e-01
  5.38216645e-01  5.41358476e-01  6.01940823e-01  6.01945133e-01
  6.36522722e-01  6.36526090e-01  6.70840048e-01  6.70842689e-01
  6.73466522e-01  7.24314454e-01  7.24318665e-01  7.37411604e-01
  7.40839161e-01  7.73551248e-01  7.73566341e-01  8.33776646e-01
  8.93503143e-01  1.02351371e+00  1.02352720e+00  1.15643035e+00
  1.24611704e+00  1.24611952e+00  1.25205185e+00  1.26669085e+00
  1.26670344e+00  1.30738253e+00  1.30738592e+00  1.51492570e+00
  1.64360779e+00  1.64546100e+00  1.66887653e+00  1.74118443e+00
  1.74892953e+00  1.74893358e+00  1.75633048e+00  1.75633249e+00
  1.75796954e+00  1.75797885e+00  1.82536260e+00  1.82538161e+00
  1.93060276e+00  1.98198685e+00  1.98198983e+00  1.98302145e+00
  1.98585489e+00  1.98586042e+00  2.11200571e+00  2.13766322e+00
  2.14036759e+00  2.14037000e+00  2.30155051e+00  2.30156608e+00
  2.30903177e+00  2.30903591e+00  2.34941938e+00  2.34942632e+00
  2.55879347e+00  2.60109722e+00  2.60110266e+00  2.64751222e+00
  2.72263493e+00  2.72271581e+00  2.72272229e+00  2.86313379e+00
  2.86314423e+00  2.89178230e+00  3.12202917e+00  3.12203791e+00
  3.24771230e+00  3.66031257e+00]
nelec by numeric integration = 42.00002639834477
    CPU time for vxc      3.74 sec, wall time      1.26 sec
E1 = -712.8999947043063  Ecoul = 312.5793836384634  Exc = -34.72627862706859
cycle= 3 E= -232.084638442296  delta_E= -0.0355  |g|= 0.0173  |ddm|= 0.449
    CPU time for cycle= 3      3.96 sec, wall time      1.34 sec
  HOMO = -0.256485715133803  LUMO = -0.00927371848105978
  mo_energy =
[-1.01923185e+01 -1.01921641e+01 -1.01921625e+01 -1.01917659e+01
 -1.01917644e+01 -1.01916487e+01 -8.46040907e-01 -7.38172136e-01
 -7.38170034e-01 -5.97914695e-01 -5.97911947e-01 -5.22548409e-01
 -4.57808274e-01 -4.49303134e-01 -4.22694366e-01 -4.22692097e-01
 -3.69001070e-01 -3.47014890e-01 -3.47010091e-01 -2.56487839e-01
 -2.56485715e-01 -9.27371848e-03 -9.26965815e-03  5.75811544e-02
  9.88700778e-02  9.88711908e-02  1.36666424e-01  1.36668265e-01
  1.48098952e-01  1.57815965e-01  2.86784090e-01  2.86787127e-01
  2.99419742e-01  2.99430005e-01  3.65792662e-01  4.07792525e-01
  4.18910173e-01  4.18913755e-01  4.33816459e-01  4.62829995e-01
  4.70101350e-01  5.03802829e-01  5.03810646e-01  5.37795825e-01
  5.37799948e-01  5.39090427e-01  6.01133464e-01  6.01137985e-01
  6.34522861e-01  6.34526005e-01  6.68975080e-01  6.68977768e-01
  6.72460023e-01  7.24141529e-01  7.24145834e-01  7.35944248e-01
  7.40136328e-01  7.72094233e-01  7.72109614e-01  8.34017902e-01
  8.91559631e-01  1.02315888e+00  1.02317248e+00  1.15485171e+00
  1.24437697e+00  1.24437946e+00  1.25111890e+00  1.26556241e+00
  1.26557520e+00  1.30568913e+00  1.30569256e+00  1.51333361e+00
  1.64254127e+00  1.64388803e+00  1.66690914e+00  1.74025987e+00
  1.74761034e+00  1.74761400e+00  1.75485212e+00  1.75485408e+00
  1.75595398e+00  1.75596338e+00  1.82346266e+00  1.82348171e+00
  1.92949167e+00  1.98086068e+00  1.98086331e+00  1.98168213e+00
  1.98432580e+00  1.98433142e+00  2.10988032e+00  2.13593582e+00
  2.13893820e+00  2.13894081e+00  2.30021910e+00  2.30023502e+00
  2.30802883e+00  2.30803301e+00  2.34883968e+00  2.34884685e+00
  2.55822473e+00  2.59927533e+00  2.59928111e+00  2.64578918e+00
  2.72079626e+00  2.72083242e+00  2.72083781e+00  2.86211707e+00
  2.86212787e+00  2.89009304e+00  3.12091930e+00  3.12092819e+00
  3.24615751e+00  3.65914073e+00]
nelec by numeric integration = 42.00002621140669
    CPU time for vxc      3.36 sec, wall time      1.57 sec
E1 = -712.886354231626  Ecoul = 312.56925262179743  Exc = -34.729847975348974
cycle= 4 E= -232.084698334562  delta_E= -5.99e-05  |g|= 0.00466  |ddm|= 0.0407
    CPU time for cycle= 4      3.58 sec, wall time      1.63 sec
  HOMO = -0.256141330672899  LUMO = -0.00882988009290465
  mo_energy =
[-1.01912697e+01 -1.01911148e+01 -1.01911139e+01 -1.01907163e+01
 -1.01907154e+01 -1.01905995e+01 -8.45896136e-01 -7.37727419e-01
 -7.37724831e-01 -5.97268372e-01 -5.97265635e-01 -5.22143513e-01
 -4.57066647e-01 -4.48742320e-01 -4.22379732e-01 -4.22377246e-01
 -3.68754264e-01 -3.46520988e-01 -3.46516210e-01 -2.56143918e-01
 -2.56141331e-01 -8.82988009e-03 -8.82614185e-03  5.77952615e-02
  9.90878254e-02  9.90890683e-02  1.36952791e-01  1.36954687e-01
  1.48624019e-01  1.58075478e-01  2.87072586e-01  2.87075612e-01
  2.99907999e-01  2.99918178e-01  3.65849996e-01  4.08187356e-01
  4.19096160e-01  4.19099840e-01  4.34060201e-01  4.63123180e-01
  4.70336224e-01  5.04146304e-01  5.04154162e-01  5.38087776e-01
  5.38092145e-01  5.39694706e-01  6.01491652e-01  6.01496001e-01
  6.35066488e-01  6.35069807e-01  6.69465436e-01  6.69468031e-01
  6.72832356e-01  7.24387406e-01  7.24391623e-01  7.36372321e-01
  7.40387625e-01  7.72581572e-01  7.72596768e-01  8.34174584e-01
  8.92137929e-01  1.02332244e+00  1.02333600e+00  1.15527124e+00
  1.24482030e+00  1.24482282e+00  1.25157718e+00  1.26584955e+00
  1.26586228e+00  1.30616795e+00  1.30617134e+00  1.51369614e+00
  1.64288719e+00  1.64437526e+00  1.66734185e+00  1.74075997e+00
  1.74801665e+00  1.74802071e+00  1.75531725e+00  1.75531928e+00
  1.75645823e+00  1.75646761e+00  1.82393273e+00  1.82395178e+00
  1.92980467e+00  1.98119319e+00  1.98119615e+00  1.98206891e+00
  1.98475021e+00  1.98475569e+00  2.11034732e+00  2.13640384e+00
  2.13949682e+00  2.13949924e+00  2.30077225e+00  2.30078781e+00
  2.30845414e+00  2.30845830e+00  2.34912391e+00  2.34913080e+00
  2.55850543e+00  2.59993011e+00  2.59993557e+00  2.64643400e+00
  2.72128005e+00  2.72133054e+00  2.72133694e+00  2.86259282e+00
  2.86260325e+00  2.89068589e+00  3.12134233e+00  3.12135101e+00
  3.24672936e+00  3.65963698e+00]
nelec by numeric integration = 42.00002626546285
    CPU time for vxc      3.33 sec, wall time      1.79 sec
E1 = -712.87320167449  Ecoul = 312.55404784061045  Exc = -34.72780119874372
cycle= 5 E= -232.084703782008  delta_E= -5.45e-06  |g|= 7.9e-05  |ddm|= 0.00658
    CPU time for cycle= 5      3.55 sec, wall time      1.84 sec
  HOMO = -0.256125537805902  LUMO = -0.00881620999286347
  mo_energy =
[-1.01912542e+01 -1.01910997e+01 -1.01910978e+01 -1.01907011e+01
 -1.01906996e+01 -1.01905836e+01 -8.45874309e-01 -7.37708340e-01
 -7.37706323e-01 -5.97252158e-01 -5.97249422e-01 -5.22125089e-01
 -4.57050363e-01 -4.48728802e-01 -4.22361650e-01 -4.22359419e-01
 -3.68737732e-01 -3.46506129e-01 -3.46501335e-01 -2.56127572e-01
 -2.56125538e-01 -8.81620999e-03 -8.81209122e-03  5.78049190e-02
  9.90960371e-02  9.90971243e-02  1.36960385e-01  1.36962208e-01
  1.48638072e-01  1.58083756e-01  2.87085324e-01  2.87088356e-01
  2.99919962e-01  2.99930238e-01  3.65861019e-01  4.08194439e-01
  4.19105410e-01  4.19108985e-01  4.34075413e-01  4.63136364e-01
  4.70349252e-01  5.04155976e-01  5.04163795e-01  5.38098889e-01
  5.38102975e-01  5.39705033e-01  6.01502686e-01  6.01507245e-01
  6.35079235e-01  6.35082355e-01  6.69477422e-01  6.69480142e-01
  6.72843608e-01  7.24400807e-01  7.24405134e-01  7.36386527e-01
  7.40403078e-01  7.72592434e-01  7.72607851e-01  8.34188205e-01
  8.92148565e-01  1.02333576e+00  1.02334938e+00  1.15528715e+00
  1.24483567e+00  1.24483816e+00  1.25159025e+00  1.26586023e+00
  1.26587302e+00  1.30618194e+00  1.30618537e+00  1.51370781e+00
  1.64290493e+00  1.64439019e+00  1.66735465e+00  1.74077506e+00
  1.74803492e+00  1.74803852e+00  1.75532994e+00  1.75533189e+00
  1.75647159e+00  1.75648099e+00  1.82394590e+00  1.82396496e+00
  1.92982053e+00  1.98120922e+00  1.98121180e+00  1.98208457e+00
  1.98476691e+00  1.98477254e+00  2.11035943e+00  2.13642071e+00
  2.13951057e+00  2.13951321e+00  2.30078524e+00  2.30080123e+00
  2.30847252e+00  2.30847670e+00  2.34914124e+00  2.34914845e+00
  2.55852323e+00  2.59994396e+00  2.59994979e+00  2.64644638e+00
  2.72129801e+00  2.72135035e+00  2.72135571e+00  2.86261063e+00
  2.86262148e+00  2.89070074e+00  3.12136302e+00  3.12137194e+00
  3.24674617e+00  3.65965784e+00]
nelec by numeric integration = 42.00002626638121
    CPU time for vxc      2.99 sec, wall time      1.47 sec
E1 = -712.872708433786  Ecoul = 312.55351192322667  Exc = -34.72775852373117
cycle= 6 E= -232.084703783675  delta_E= -1.67e-09  |g|= 2.84e-05  |ddm|= 0.000204
    CPU time for cycle= 6      3.19 sec, wall time      1.83 sec
  HOMO = -0.256124988738377  LUMO = -0.00881584365482094
  mo_energy =
[-1.01912544e+01 -1.01910996e+01 -1.01910986e+01 -1.01907011e+01
 -1.01907002e+01 -1.01905842e+01 -8.45874265e-01 -7.37708619e-01
 -7.37706116e-01 -5.97252340e-01 -5.97249604e-01 -5.22125565e-01
 -4.57050975e-01 -4.48728785e-01 -4.22362241e-01 -4.22359797e-01
 -3.68737388e-01 -3.46506550e-01 -3.46501771e-01 -2.56127495e-01
 -2.56124989e-01 -8.81584365e-03 -8.81204957e-03  5.78046468e-02
  9.90956833e-02  9.90969013e-02  1.36960084e-01  1.36961968e-01
  1.48638182e-01  1.58083483e-01  2.87085212e-01  2.87088240e-01
  2.99919850e-01  2.99930044e-01  3.65861264e-01  4.08194282e-01
  4.19105408e-01  4.19109071e-01  4.34074952e-01  4.63136244e-01
  4.70349661e-01  5.04155848e-01  5.04163700e-01  5.38099079e-01
  5.38103404e-01  5.39704757e-01  6.01502973e-01  6.01507351e-01
  6.35078728e-01  6.35082017e-01  6.69477113e-01  6.69479724e-01
  6.72843693e-01  7.24400853e-01  7.24405087e-01  7.36386178e-01
  7.40402842e-01  7.72592391e-01  7.72607619e-01  8.34188277e-01
  8.92148366e-01  1.02333570e+00  1.02334928e+00  1.15528672e+00
  1.24483523e+00  1.24483773e+00  1.25159051e+00  1.26585998e+00
  1.26587272e+00  1.30618168e+00  1.30618508e+00  1.51370724e+00
  1.64290450e+00  1.64438984e+00  1.66735405e+00  1.74077532e+00
  1.74803428e+00  1.74803827e+00  1.75532975e+00  1.75533177e+00
  1.75647106e+00  1.75648044e+00  1.82394540e+00  1.82396445e+00
  1.92982007e+00  1.98120865e+00  1.98121156e+00  1.98208401e+00
  1.98476642e+00  1.98477193e+00  2.11035875e+00  2.13642010e+00
  2.13951071e+00  2.13951316e+00  2.30078561e+00  2.30080123e+00
  2.30847214e+00  2.30847630e+00  2.34914121e+00  2.34914814e+00
  2.55852304e+00  2.59994407e+00  2.59994958e+00  2.64644656e+00
  2.72129803e+00  2.72134874e+00  2.72135513e+00  2.86261054e+00
  2.86262104e+00  2.89070059e+00  3.12136268e+00  3.12137139e+00
  3.24674585e+00  3.65965753e+00]
nelec by numeric integration = 42.00002626638903
    CPU time for vxc      3.37 sec, wall time      1.38 sec
E1 = -712.8727011317226  Ecoul = 312.5535049435282  Exc = -34.72775884621872
cycle= 7 E= -232.084703783798  delta_E= -1.23e-10  |g|= 2.02e-05  |ddm|= 5.5e-05
    CPU time for cycle= 7      3.58 sec, wall time      1.46 sec
  HOMO = -0.256124849835651  LUMO = -0.00881572696455271
  mo_energy =
[-1.01912548e+01 -1.01910999e+01 -1.01910982e+01 -1.01907014e+01
 -1.01907003e+01 -1.01905838e+01 -8.45874101e-01 -7.37708341e-01
 -7.37706197e-01 -5.97252351e-01 -5.97249615e-01 -5.22125790e-01
 -4.57051313e-01 -4.48728624e-01 -4.22362379e-01 -4.22360099e-01
 -3.68737053e-01 -3.46506730e-01 -3.46501940e-01 -2.56127008e-01
 -2.56124850e-01 -8.81572696e-03 -8.81169395e-03  5.78045103e-02
  9.90955819e-02  9.90967007e-02  1.36959962e-01  1.36961800e-01
  1.48638352e-01  1.58083334e-01  2.87085225e-01  2.87088255e-01
  2.99919809e-01  2.99930064e-01  3.65861506e-01  4.08194262e-01
  4.19105535e-01  4.19109132e-01  4.34074714e-01  4.63136238e-01
  4.70350024e-01  5.04155865e-01  5.04163693e-01  5.38099463e-01
  5.38103610e-01  5.39704664e-01  6.01503125e-01  6.01507635e-01
  6.35078581e-01  6.35081743e-01  6.69476907e-01  6.69479593e-01
  6.72843832e-01  7.24400922e-01  7.24405224e-01  7.36386041e-01
  7.40402772e-01  7.72592336e-01  7.72607703e-01  8.34188424e-01
  8.92148340e-01  1.02333571e+00  1.02334932e+00  1.15528652e+00
  1.24483503e+00  1.24483752e+00  1.25159082e+00  1.26585984e+00
  1.26587262e+00  1.30618158e+00  1.30618500e+00  1.51370690e+00
  1.64290431e+00  1.64438971e+00  1.66735371e+00  1.74077562e+00
  1.74803423e+00  1.74803793e+00  1.75532977e+00  1.75533173e+00
  1.75647077e+00  1.75648017e+00  1.82394513e+00  1.82396420e+00
  1.92981985e+00  1.98120859e+00  1.98121125e+00  1.98208372e+00
  1.98476611e+00  1.98477171e+00  2.11035835e+00  2.13641978e+00
  2.13951079e+00  2.13951338e+00  2.30078572e+00  2.30080162e+00
  2.30847199e+00  2.30847617e+00  2.34914110e+00  2.34914824e+00
  2.55852302e+00  2.59994404e+00  2.59994979e+00  2.64644681e+00
  2.72129664e+00  2.72134938e+00  2.72135469e+00  2.86261037e+00
  2.86262113e+00  2.89070060e+00  3.12136242e+00  3.12137128e+00
  3.24674577e+00  3.65965746e+00]
nelec by numeric integration = 42.00002626639473
    CPU time for vxc      3.17 sec, wall time      1.76 sec
E1 = -712.8726914011299  Ecoul = 312.5534950684805  Exc = -34.727758701413755
Extra cycle  E= -232.084703783448  delta_E= 3.5e-10  |g|= 3.95e-05  |ddm|= 6.75e-05
    CPU time for scf_cycle     38.61 sec, wall time     16.33 sec
    CPU time for SCF     38.64 sec, wall time     16.34 sec
converged SCF energy = -232.084703783448
Create scanner for <class 'pyscf.grad.rks.Gradients'>
Create scanner for <class 'pyscf.dft.rks.RKS'>

Geometry optimization cycle 1
Cartesian coordinates (Angstrom)
 Atom        New coordinates             dX        dY        dZ
   C  -0.659140  -1.210340   3.986830    0.000000  0.000000 -0.000000
   C   0.737980  -1.210340   4.020590    0.000000  0.000000  0.000000
   C  -1.357710  -0.000060   3.969900    0.000000  0.000000  0.000000
   C   1.436530  -0.000040   4.037410    0.000000  0.000000  0.000000
   C  -0.659150   1.210240   3.986850    0.000000  0.000000  0.000000
   C   0.737970   1.210240   4.020610   -0.000000  0.000000  0.000000
   H  -1.204470  -2.155200   3.973690    0.000000  0.000000 -0.000000
   H   1.283320  -2.155170   4.033820    0.000000  0.000000  0.000000
   H  -2.448390  -0.000060   3.943420    0.000000  0.000000  0.000000
   H   2.527220  -0.000040   4.063690    0.000000  0.000000  0.000000
   H  -1.204480   2.155090   3.973730    0.000000  0.000000  0.000000
   H   1.283300   2.155080   4.033860    0.000000  0.000000  0.000000
New geometry
   1 C     -0.659140000000  -1.210340000000   3.986830000000 AA   -1.245594077746  -2.287211117606   7.534016805200 Bohr

   2 C      0.737980000000  -1.210340000000   4.020590000000 AA    1.394580085407  -2.287211117606   7.597813959165 Bohr

   3 C     -1.357710000000  -0.000060000000   3.969900000000 AA   -2.565700056583  -0.000113383567   7.502023741911 Bohr

   4 C      1.436530000000  -0.000040000000   4.037410000000 AA    2.714648269721  -0.000075589045   7.629599152580 Bohr

   5 C     -0.659150000000   1.210240000000   3.986850000000 AA   -1.245612975007   2.287022144994   7.534054599722 Bohr

   6 C      0.737970000000   1.210240000000   4.020610000000 AA    1.394561188145   2.287022144994   7.597851753688 Bohr

   7 H     -1.204470000000  -2.155200000000   3.973690000000 AA   -2.276118425255  -4.072737743663   7.509185803923 Bohr

   8 H      1.283320000000  -2.155170000000   4.033820000000 AA    2.425123330177  -4.072681051879   7.622815035793 Bohr

   9 H     -2.448390000000  -0.000060000000   3.943420000000 AA   -4.626786546124  -0.000113383567   7.451983794132 Bohr

  10 H      2.527220000000  -0.000040000000   4.063690000000 AA    4.775753656523  -0.000075589045   7.679261155134 Bohr

  11 H     -1.204480000000   2.155090000000   3.973730000000 AA   -2.276137322516   4.072529873789   7.509261392968 Bohr

  12 H      1.283300000000   2.155080000000   4.033860000000 AA    2.425085535654   4.072510976528   7.622890624838 Bohr



******** <class 'pyscf.scf.hf.RKS_Scanner'> ********
method = RKS_Scanner
initial guess = minao
damping factor = 0
level_shift factor = 0
DIIS = <class 'pyscf.scf.diis.CDIIS'>
diis_start_cycle = 1
diis_space = 8
SCF conv_tol = 1e-09
SCF conv_tol_grad = None
SCF max_cycles = 300
direct_scf = True
direct_scf_tol = 1e-13
chkfile to save SCF result = /var/folders/_x/hdd0n3v13rgc0_p09wk_rwl40000gn/T/tmpz1i89x9o
max_memory 4000 MB (current use 0 MB)
XC library pyscf.dft.libxc version 6.2.2
    S. Lehtola, C. Steigemann, M. J.T. Oliveira, and M. A.L. Marques.,  SoftwareX 7, 1–5 (2018)
XC functionals = b3lyp
    P. J. Stephens, F. J. Devlin, C. F. Chabalowski, and M. J. Frisch.,  J. Phys. Chem. 98, 11623 (1994)
radial grids: 
    Treutler-Ahlrichs [JCP 102, 346 (1995); DOI:10.1063/1.469408] (M4) radial grids
    
becke partition: Becke, JCP 88, 2547 (1988); DOI:10.1063/1.454033
pruning grids: <function nwchem_prune at 0x117a42480>
grids dens level: 3
symmetrized grids: False
atomic radii adjust function: <function treutler_atomic_radii_adjust at 0x117a42a20>
small_rho_cutoff = 1e-07
Set gradient conv threshold to 3.16228e-05
atom C rad-grids = 75, ang-grids = [ 50  50  50  50  50  50  50  50  50  50  50  50  50  50  50  50  50  50
  50  50  50  50  50  86  86  86  86  86  86  86  86  86  86 266 266 266
 266 266 266 266 302 302 302 302 302 302 302 302 302 302 302 302 302 302
 302 302 302 302 302 302 266 266 266 266 266 266 266 266 266 266 266 266
 266 266 266]
atom H rad-grids = 50, ang-grids = [ 50  50  50  50  50  50  50  50  50  50  50  50  50  50  86  86  86  86
 266 266 266 266 302 302 302 302 302 302 302 302 302 302 302 302 302 266
 266 266 266 266 266 266 266 266 266 266 266 266 266 266]
tot_boxes 2448, boxes in each direction [15 14  7]
Padding 4 grids
tot grids = 143560
Drop grids 22990
prune_by_density_: 6 padding grids
    CPU time for setting up grids      2.09 sec, wall time      1.05 sec
nelec by numeric integration = 42.000026266286234
    CPU time for vxc      3.20 sec, wall time      2.34 sec
E1 = -712.8726914011299  Ecoul = 312.5534950684804  Exc = -34.727758701411574
init E= -232.084703783446
cond(S) = 19963.873029085644
    CPU time for initialize scf      9.02 sec, wall time      5.61 sec
  HOMO = -0.256124811120065  LUMO = -0.00881574243515968
  mo_energy =
[-1.01912557e+01 -1.01911001e+01 -1.01910984e+01 -1.01907018e+01
 -1.01907011e+01 -1.01905835e+01 -8.45874386e-01 -7.37708826e-01
 -7.37706156e-01 -5.97252508e-01 -5.97249772e-01 -5.22125901e-01
 -4.57051332e-01 -4.48728878e-01 -4.22362643e-01 -4.22360113e-01
 -3.68737281e-01 -3.46506857e-01 -3.46502082e-01 -2.56127477e-01
 -2.56124811e-01 -8.81574244e-03 -8.81205798e-03  5.78044931e-02
  9.90954963e-02  9.90967643e-02  1.36959929e-01  1.36961837e-01
  1.48638182e-01  1.58083343e-01  2.87085091e-01  2.87088117e-01
  2.99919741e-01  2.99929906e-01  3.65861334e-01  4.08194176e-01
  4.19105380e-01  4.19109078e-01  4.34074662e-01  4.63136129e-01
  4.70349831e-01  5.04155747e-01  5.04163609e-01  5.38099164e-01
  5.38103575e-01  5.39704582e-01  6.01503066e-01  6.01507387e-01
  6.35078431e-01  6.35081782e-01  6.69476889e-01  6.69479473e-01
  6.72843702e-01  7.24400782e-01  7.24404984e-01  7.36385911e-01
  7.40402634e-01  7.72592284e-01  7.72607449e-01  8.34188227e-01
  8.92148197e-01  1.02333562e+00  1.02334917e+00  1.15528644e+00
  1.24483494e+00  1.24483747e+00  1.25159056e+00  1.26585984e+00
  1.26587256e+00  1.30618149e+00  1.30618487e+00  1.51370694e+00
  1.64290420e+00  1.64438960e+00  1.66735373e+00  1.74077537e+00
  1.74803391e+00  1.74803803e+00  1.75532961e+00  1.75533165e+00
  1.75647075e+00  1.75648013e+00  1.82394512e+00  1.82396416e+00
  1.92981977e+00  1.98120832e+00  1.98121134e+00  1.98208366e+00
  1.98476610e+00  1.98477157e+00  2.11035838e+00  2.13641972e+00
  2.13951070e+00  2.13951308e+00  2.30078568e+00  2.30080118e+00
  2.30847183e+00  2.30847599e+00  2.34914107e+00  2.34914791e+00
  2.55852284e+00  2.59994403e+00  2.59994943e+00  2.64644658e+00
  2.72129776e+00  2.72134794e+00  2.72135483e+00  2.86261036e+00
  2.86262073e+00  2.89070043e+00  3.12136237e+00  3.12137101e+00
  3.24674559e+00  3.65965725e+00]
nelec by numeric integration = 42.000026266285644
    CPU time for vxc      3.30 sec, wall time      1.72 sec
E1 = -712.8727044100259  Ecoul = 312.55350885488554  Exc = -34.72775947757474
cycle= 1 E= -232.0847037821  delta_E= 1.35e-09  |g|= 7.75e-05  |ddm|= 0.000132
    CPU time for cycle= 1      3.52 sec, wall time      1.90 sec
  HOMO = -0.256124908899711  LUMO = -0.00881575265448094
  mo_energy =
[-1.01912584e+01 -1.01911008e+01 -1.01910949e+01 -1.01907045e+01
 -1.01907005e+01 -1.01905786e+01 -8.45874018e-01 -7.37708143e-01
 -7.37706237e-01 -5.97252274e-01 -5.97249537e-01 -5.22125703e-01
 -4.57051228e-01 -4.48728553e-01 -4.22362247e-01 -4.22360056e-01
 -3.68736996e-01 -3.46506649e-01 -3.46501852e-01 -2.56126833e-01
 -2.56124909e-01 -8.81575265e-03 -8.81155910e-03  5.78045601e-02
  9.90956566e-02  9.90967180e-02  1.36960017e-01  1.36961829e-01
  1.48638411e-01  1.58083380e-01  2.87085281e-01  2.87088314e-01
  2.99919854e-01  2.99930151e-01  3.65861544e-01  4.08194311e-01
  4.19105596e-01  4.19109153e-01  4.34074791e-01  4.63136295e-01
  4.70350067e-01  5.04155925e-01  5.04163738e-01  5.38099563e-01
  5.38103596e-01  5.39704728e-01  6.01503126e-01  6.01507728e-01
  6.35078687e-01  6.35081770e-01  6.69476942e-01  6.69479688e-01
  6.72843884e-01  7.24400956e-01  7.24405306e-01  7.36386116e-01
  7.40402842e-01  7.72592353e-01  7.72607812e-01  8.34188482e-01
  8.92148405e-01  1.02333576e+00  1.02334939e+00  1.15528660e+00
  1.24483511e+00  1.24483760e+00  1.25159087e+00  1.26585988e+00
  1.26587270e+00  1.30618165e+00  1.30618509e+00  1.51370697e+00
  1.64290440e+00  1.64438979e+00  1.66735379e+00  1.74077568e+00
  1.74803442e+00  1.74803792e+00  1.75532985e+00  1.75533178e+00
  1.75647085e+00  1.75648025e+00  1.82394521e+00  1.82396428e+00
  1.92981993e+00  1.98120876e+00  1.98121125e+00  1.98208377e+00
  1.98476620e+00  1.98477183e+00  2.11035843e+00  2.13641987e+00
  2.13951080e+00  2.13951349e+00  2.30078569e+00  2.30080177e+00
  2.30847208e+00  2.30847627e+00  2.34914111e+00  2.34914839e+00
  2.55852310e+00  2.59994403e+00  2.59994994e+00  2.64644686e+00
  2.72129293e+00  2.72135185e+00  2.72135623e+00  2.86261037e+00
  2.86262131e+00  2.89070067e+00  3.12136247e+00  3.12137143e+00
  3.24674586e+00  3.65965756e+00]
nelec by numeric integration = 42.00002626628901
    CPU time for vxc      2.53 sec, wall time      2.03 sec
E1 = -712.8726896820215  Ecoul = 312.55349317204696  Exc = -34.72775851754632
cycle= 2 E= -232.084703776905  delta_E= 5.19e-09  |g|= 0.000152  |ddm|= 0.000259
    CPU time for cycle= 2      2.72 sec, wall time      2.12 sec
  HOMO = -0.256124829015402  LUMO = -0.00881571937472688
  mo_energy =
[-1.01912545e+01 -1.01910998e+01 -1.01910986e+01 -1.01907014e+01
 -1.01907001e+01 -1.01905843e+01 -8.45874156e-01 -7.37708445e-01
 -7.37706165e-01 -5.97252364e-01 -5.97249628e-01 -5.22125780e-01
 -4.57051271e-01 -4.48728676e-01 -4.22362408e-01 -4.22360070e-01
 -3.68737102e-01 -3.46506730e-01 -3.46501944e-01 -2.56127119e-01
 -2.56124829e-01 -8.81571937e-03 -8.81177699e-03  5.78045339e-02
  9.90955866e-02  9.90967413e-02  1.36959979e-01  1.36961834e-01
  1.48638323e-01  1.58083363e-01  2.87085211e-01  2.87088241e-01
  2.99919815e-01  2.99930046e-01  3.65861466e-01  4.08194259e-01
  4.19105509e-01  4.19109130e-01  4.34074739e-01  4.63136232e-01
  4.70349980e-01  5.04155853e-01  5.04163690e-01  5.38099394e-01
  5.38103607e-01  5.39704671e-01  6.01503121e-01  6.01507580e-01
  6.35078576e-01  6.35081786e-01  6.69476934e-01  6.69479589e-01
  6.72843814e-01  7.24400900e-01  7.24405177e-01  7.36386034e-01
  7.40402762e-01  7.72592342e-01  7.72607656e-01  8.34188385e-01
  8.92148323e-01  1.02333571e+00  1.02334930e+00  1.15528654e+00
  1.24483505e+00  1.24483754e+00  1.25159076e+00  1.26585987e+00
  1.26587264e+00  1.30618159e+00  1.30618500e+00  1.51370695e+00
  1.64290432e+00  1.64438972e+00  1.66735376e+00  1.74077557e+00
  1.74803419e+00  1.74803800e+00  1.75532975e+00  1.75533174e+00
  1.75647081e+00  1.75648020e+00  1.82394517e+00  1.82396423e+00
  1.92981987e+00  1.98120856e+00  1.98121131e+00  1.98208375e+00
  1.98476615e+00  1.98477172e+00  2.11035841e+00  2.13641981e+00
  2.13951078e+00  2.13951332e+00  2.30078572e+00  2.30080151e+00
  2.30847198e+00  2.30847616e+00  2.34914112e+00  2.34914818e+00
  2.55852300e+00  2.59994406e+00  2.59994971e+00  2.64644676e+00
  2.72129742e+00  2.72134871e+00  2.72135468e+00  2.86261040e+00
  2.86262106e+00  2.89070058e+00  3.12136245e+00  3.12137125e+00
  3.24674576e+00  3.65965744e+00]
nelec by numeric integration = 42.00002626628793
    CPU time for vxc      3.03 sec, wall time      1.57 sec
E1 = -712.8726952174444  Ecoul = 312.5534990655075  Exc = -34.72775888259717
cycle= 3 E= -232.084703783919  delta_E= -7.01e-09  |g|= 8.45e-07  |ddm|= 0.000172
    CPU time for cycle= 3      3.24 sec, wall time      1.65 sec
  HOMO = -0.256124827229977  LUMO = -0.00881572586309261
  mo_energy =
[-1.01912546e+01 -1.01910998e+01 -1.01910987e+01 -1.01907014e+01
 -1.01907002e+01 -1.01905844e+01 -8.45874205e-01 -7.37708525e-01
 -7.37706166e-01 -5.97252396e-01 -5.97249660e-01 -5.22125807e-01
 -4.57051286e-01 -4.48728720e-01 -4.22362458e-01 -4.22360084e-01
 -3.68737140e-01 -3.46506759e-01 -3.46501975e-01 -2.56127194e-01
 -2.56124827e-01 -8.81572586e-03 -8.81183604e-03  5.78045244e-02
  9.90955676e-02  9.90967441e-02  1.36959968e-01  1.36961833e-01
  1.48638292e-01  1.58083358e-01  2.87085185e-01  2.87088214e-01
  2.99919798e-01  2.99930016e-01  3.65861438e-01  4.08194240e-01
  4.19105482e-01  4.19109117e-01  4.34074722e-01  4.63136209e-01
  4.70349948e-01  5.04155830e-01  5.04163672e-01  5.38099347e-01
  5.38103599e-01  5.39704651e-01  6.01503109e-01  6.01507539e-01
  6.35078545e-01  6.35081782e-01  6.69476924e-01  6.69479562e-01
  6.72843789e-01  7.24400874e-01  7.24405135e-01  7.36386007e-01
  7.40402733e-01  7.72592328e-01  7.72607611e-01  8.34188351e-01
  8.92148295e-01  1.02333569e+00  1.02334927e+00  1.15528651e+00
  1.24483503e+00  1.24483752e+00  1.25159071e+00  1.26585986e+00
  1.26587262e+00  1.30618157e+00  1.30618497e+00  1.51370695e+00
  1.64290430e+00  1.64438969e+00  1.66735375e+00  1.74077552e+00
  1.74803413e+00  1.74803800e+00  1.75532972e+00  1.75533172e+00
  1.75647080e+00  1.75648019e+00  1.82394516e+00  1.82396421e+00
  1.92981985e+00  1.98120851e+00  1.98121132e+00  1.98208373e+00
  1.98476614e+00  1.98477169e+00  2.11035840e+00  2.13641979e+00
  2.13951076e+00  2.13951327e+00  2.30078571e+00  2.30080145e+00
  2.30847195e+00  2.30847612e+00  2.34914111e+00  2.34914812e+00
  2.55852297e+00  2.59994405e+00  2.59994965e+00  2.64644672e+00
  2.72129740e+00  2.72134865e+00  2.72135469e+00  2.86261038e+00
  2.86262099e+00  2.89070055e+00  3.12136243e+00  3.12137120e+00
  3.24674572e+00  3.65965740e+00]
nelec by numeric integration = 42.00002626628741
    CPU time for vxc      3.63 sec, wall time      1.44 sec
E1 = -712.8726971848348  Ecoul = 312.55350116239333  Exc = -34.72775901209149
cycle= 4 E= -232.084703783917  delta_E= 1.14e-12  |g|= 4.02e-08  |ddm|= 8.04e-07
    CPU time for cycle= 4      3.84 sec, wall time      1.50 sec
  HOMO = -0.256124839932372  LUMO = -0.00881573671464596
  mo_energy =
[-1.01912546e+01 -1.01910999e+01 -1.01910988e+01 -1.01907014e+01
 -1.01907002e+01 -1.01905844e+01 -8.45874220e-01 -7.37708534e-01
 -7.37706180e-01 -5.97252405e-01 -5.97249669e-01 -5.22125815e-01
 -4.57051290e-01 -4.48728733e-01 -4.22362465e-01 -4.22360093e-01
 -3.68737151e-01 -3.46506767e-01 -3.46501983e-01 -2.56127202e-01
 -2.56124840e-01 -8.81573671e-03 -8.81184379e-03  5.78045219e-02
  9.90955661e-02  9.90967414e-02  1.36959967e-01  1.36961831e-01
  1.48638284e-01  1.58083357e-01  2.87085177e-01  2.87088206e-01
  2.99919791e-01  2.99930010e-01  3.65861430e-01  4.08194235e-01
  4.19105476e-01  4.19109111e-01  4.34074717e-01  4.63136203e-01
  4.70349939e-01  5.04155824e-01  5.04163666e-01  5.38099340e-01
  5.38103590e-01  5.39704645e-01  6.01503101e-01  6.01507532e-01
  6.35078541e-01  6.35081777e-01  6.69476918e-01  6.69479558e-01
  6.72843783e-01  7.24400864e-01  7.24405126e-01  7.36385999e-01
  7.40402725e-01  7.72592319e-01  7.72607604e-01  8.34188341e-01
  8.92148288e-01  1.02333568e+00  1.02334927e+00  1.15528651e+00
  1.24483502e+00  1.24483752e+00  1.25159070e+00  1.26585986e+00
  1.26587262e+00  1.30618156e+00  1.30618497e+00  1.51370695e+00
  1.64290429e+00  1.64438968e+00  1.66735375e+00  1.74077551e+00
  1.74803412e+00  1.74803799e+00  1.75532971e+00  1.75533171e+00
  1.75647079e+00  1.75648018e+00  1.82394515e+00  1.82396421e+00
  1.92981984e+00  1.98120850e+00  1.98121131e+00  1.98208372e+00
  1.98476613e+00  1.98477168e+00  2.11035840e+00  2.13641978e+00
  2.13951075e+00  2.13951326e+00  2.30078570e+00  2.30080144e+00
  2.30847194e+00  2.30847611e+00  2.34914110e+00  2.34914811e+00
  2.55852296e+00  2.59994404e+00  2.59994964e+00  2.64644671e+00
  2.72129739e+00  2.72134865e+00  2.72135469e+00  2.86261037e+00
  2.86262098e+00  2.89070054e+00  3.12136242e+00  3.12137119e+00
  3.24674571e+00  3.65965739e+00]
nelec by numeric integration = 42.00002626628711
    CPU time for vxc      3.89 sec, wall time      1.25 sec
E1 = -712.8726977573443  Ecoul = 312.5535017717176  Exc = -34.72775904890792
Extra cycle  E= -232.084703783919  delta_E= -1.65e-12  |g|= 4.8e-08  |ddm|= 1.03e-07
    CPU time for scf_cycle     26.45 sec, wall time     14.07 sec
    CPU time for SCF     26.48 sec, wall time     14.09 sec
converged SCF energy = -232.084703783919


******** <class 'pyscf.grad.rhf.Gradients_Scanner'> for <class 'pyscf.scf.hf.RKS_Scanner'> ********
unit = Eh/Bohr
max_memory 4000 MB (current use 0 MB)
grid_response = False
Computing Gradients of NR-HF Coulomb repulsion
    CPU time for vxc      7.13 sec, wall time      4.34 sec
    CPU time for vj and vk     31.97 sec, wall time     12.35 sec
    CPU time for gradients of 2e part     39.11 sec, wall time     16.69 sec
gradients of electronic part
         x                y                z
0 C    -4.2022841247    -7.2807817251    -0.1013671541
1 C     4.2023564078    -7.2807539897     0.1017272694
2 C    -8.4046315404     0.0000166352    -0.2034946186
3 C     8.4046494030    -0.0000171985     0.2025128568
4 C    -4.2024051243     7.2807081745    -0.1012545011
5 C     4.2022429670     7.2808109807     0.1018398275
6 H    -1.2348279894    -2.1394801993    -0.0297582822
7 H     1.2348862508    -2.1394962726     0.0299479771
8 H    -2.4697438179    -0.0000034736    -0.0599356855
9 H     2.4697482334     0.0000036992     0.0595065389
10 H    -1.2348502290     2.1394882439    -0.0297154206
11 H     1.2348595554     2.1395051252     0.0299911799
    CPU time for SCF gradients     39.24 sec, wall time     16.78 sec
--------------- RKS_Scanner gradients ---------------
         x                y                z
0 C    -0.0001368223    -0.0002101836    -0.0000008218
1 C     0.0001428006    -0.0002314006     0.0000029246
2 C    -0.0002338666    -0.0000099713    -0.0000058104
3 C     0.0002218693     0.0000096584     0.0000016422
4 C    -0.0001362772     0.0002263154    -0.0000011228
5 C     0.0001455977     0.0002180594     0.0000026542
6 H     0.0007781813     0.0013483626     0.0000205949
7 H    -0.0007834315     0.0013602618    -0.0000168549
8 H     0.0015658710     0.0000005731     0.0000332521
9 H    -0.0015626679    -0.0000005393    -0.0000406242
10 H     0.0007814119    -0.0013530268     0.0000208249
11 H    -0.0007826745    -0.0013581089    -0.0000166714
----------------------------------------------
cycle 1: E = -232.084703784  dE = -232.085  norm(grad) = 0.00388119

Geometry optimization cycle 2
Cartesian coordinates (Angstrom)
 Atom        New coordinates             dX        dY        dZ
   C  -0.659899  -1.211566   3.986776   -0.000759 -0.001226 -0.000054
   C   0.738725  -1.211544   4.020600    0.000745 -0.001204  0.000010
   C  -1.359373  -0.000059   3.969884   -0.001663  0.000001 -0.000016
   C   1.438212  -0.000041   4.037521    0.001682 -0.000001  0.000111
   C  -0.659900   1.211451   3.986798   -0.000750  0.001211 -0.000052
   C   0.738724   1.211459   4.020622    0.000754  0.001219  0.000012
   H  -1.206351  -2.158520   3.973565   -0.001881 -0.003320 -0.000125
   H   1.285190  -2.158490   4.033815    0.001870 -0.003320 -0.000005
   H  -2.452443  -0.000056   3.943432   -0.004053  0.000004  0.000012
   H   2.531283  -0.000044   4.063932    0.004063 -0.000004  0.000242
   H  -1.206364   2.158397   3.973604   -0.001884  0.003307 -0.000126
   H   1.285175   2.158413   4.033854    0.001875  0.003333 -0.000006
New geometry
   1 C     -0.659899050224  -1.211566353740   3.986775813006 AA   -1.247028474784  -2.289528590306   7.533914406622 Bohr

   2 C      0.738725267186  -1.211543985530   4.020599721520 AA    1.395988436277  -2.289486320516   7.597832330175 Bohr

   3 C     -1.359372795197  -0.000058682157   3.969883806345 AA   -2.568842284106  -0.000110893205   7.501993140337 Bohr

   4 C      1.438211788982  -0.000041483572   4.037521376192 AA    2.717826390297  -0.000078392590   7.629809623081 Bohr

   5 C     -0.659900133528   1.211450753661   3.986797741742 AA   -1.247030521932   2.289310137816   7.533955845926 Bohr

   6 C      0.738724465357   1.211459274741   4.020621664095 AA    1.395986921040   2.289326240325   7.597873795633 Bohr

   7 H     -1.206350749793  -2.158519968200   3.973565153759 AA   -2.279672527273  -4.079011574304   7.508949878719 Bohr

   8 H      1.285189849478  -2.158489640719   4.033814717044 AA    2.428656833585  -4.078954263670   7.622805052453 Bohr

   9 H     -2.452442858428  -0.000056111553   3.943431518353 AA   -4.634445338575  -0.000106035468   7.452005560666 Bohr

  10 H      2.531283452483  -0.000044391043   4.063931780029 AA    4.783432468836  -0.000083886913   7.679718053171 Bohr

  11 H     -1.206363601557   2.158397420561   3.973604356248 AA   -2.279696813587   4.078779992827   7.509023960687 Bohr

  12 H      1.285175407524   2.158413150718   4.033853954955 AA    2.428629542247   4.078809718517   7.622879201359 Bohr



******** <class 'pyscf.scf.hf.RKS_Scanner'> ********
method = RKS_Scanner
initial guess = minao
damping factor = 0
level_shift factor = 0
DIIS = <class 'pyscf.scf.diis.CDIIS'>
diis_start_cycle = 1
diis_space = 8
SCF conv_tol = 1e-09
SCF conv_tol_grad = None
SCF max_cycles = 300
direct_scf = True
direct_scf_tol = 1e-13
chkfile to save SCF result = /var/folders/_x/hdd0n3v13rgc0_p09wk_rwl40000gn/T/tmpz1i89x9o
max_memory 4000 MB (current use 0 MB)
XC library pyscf.dft.libxc version 6.2.2
    S. Lehtola, C. Steigemann, M. J.T. Oliveira, and M. A.L. Marques.,  SoftwareX 7, 1–5 (2018)
XC functionals = b3lyp
    P. J. Stephens, F. J. Devlin, C. F. Chabalowski, and M. J. Frisch.,  J. Phys. Chem. 98, 11623 (1994)
radial grids: 
    Treutler-Ahlrichs [JCP 102, 346 (1995); DOI:10.1063/1.469408] (M4) radial grids
    
becke partition: Becke, JCP 88, 2547 (1988); DOI:10.1063/1.454033
pruning grids: <function nwchem_prune at 0x117a42480>
grids dens level: 3
symmetrized grids: False
atomic radii adjust function: <function treutler_atomic_radii_adjust at 0x117a42a20>
small_rho_cutoff = 1e-07
Set gradient conv threshold to 3.16228e-05
atom C rad-grids = 75, ang-grids = [ 50  50  50  50  50  50  50  50  50  50  50  50  50  50  50  50  50  50
  50  50  50  50  50  86  86  86  86  86  86  86  86  86  86 266 266 266
 266 266 266 266 302 302 302 302 302 302 302 302 302 302 302 302 302 302
 302 302 302 302 302 302 266 266 266 266 266 266 266 266 266 266 266 266
 266 266 266]
atom H rad-grids = 50, ang-grids = [ 50  50  50  50  50  50  50  50  50  50  50  50  50  50  86  86  86  86
 266 266 266 266 302 302 302 302 302 302 302 302 302 302 302 302 302 266
 266 266 266 266 266 266 266 266 266 266 266 266 266 266]
tot_boxes 2448, boxes in each direction [15 14  7]
Padding 4 grids
tot grids = 143560
Drop grids 22963
prune_by_density_: 3 padding grids
    CPU time for setting up grids      1.63 sec, wall time      1.00 sec
nelec by numeric integration = 41.98803065064115
    CPU time for vxc      3.38 sec, wall time      1.38 sec
E1 = -712.2479115759459  Ecoul = 312.1746586309698  Exc = -34.71381174764435
init E= -232.077638670851
cond(S) = 19735.732216871733
    CPU time for initialize scf      8.49 sec, wall time      3.47 sec
  HOMO = -0.258929947652094  LUMO = -0.0120722721952588
  mo_energy =
[-10.19489467 -10.19475065 -10.19473662 -10.19435928 -10.1943449
 -10.19423924  -0.84814129  -0.74017396  -0.74015497  -0.59969487
  -0.59967964  -0.52413021  -0.45943762  -0.45146697  -0.42486031
  -0.42481308  -0.37123528  -0.3493026   -0.34924685  -0.25893855
  -0.25892995  -0.01207227  -0.01206516   0.05510764   0.09658001
   0.09658523   0.13440192   0.13440288   0.14500232   0.15528454
   0.28354698   0.28357266   0.29634046   0.29636608   0.36329635
   0.40579163   0.41652078   0.41655043   0.43066011   0.45890949
   0.46763445   0.50079061   0.50080257   0.53548075   0.53548568
   0.53568148   0.5985981    0.59860289   0.63119851   0.63121918
   0.66583077   0.66584115   0.66977111   0.72066899   0.72071215
   0.73216617   0.73664676   0.76906354   0.76909276   0.83000977
   0.88811874   1.0198208    1.01983011   1.15270551   1.2417735
   1.24181993   1.24840212   1.26204029   1.26210959   1.30289133
   1.30293455   1.5103869    1.63811267   1.64089304   1.66388741
   1.73636452   1.74241527   1.74249812   1.75134083   1.75134111
   1.75239293   1.7524778    1.82015728   1.82024044   1.92558698
   1.97618515   1.97642499   1.97647029   1.97852541   1.97861952
   2.1087677    2.12899382   2.13504756   2.13511307   2.29612715
   2.29628842   2.30212575   2.30212877   2.34348078   2.34359375
   2.55140719   2.59384364   2.59393919   2.64033353   2.71368634
   2.71371051   2.71376434   2.85532175   2.85542667   2.88352606
   3.11245846   3.11259583   3.23792088   3.64917228]
nelec by numeric integration = 42.00002635281393
    CPU time for vxc      3.55 sec, wall time      1.20 sec
E1 = -712.4133041714933  Ecoul = 312.3392806949549  Exc = -34.72013042081784
cycle= 1 E= -232.084727875587  delta_E= -0.00709  |g|= 0.00405  |ddm|= 0.0383
    CPU time for cycle= 1      3.76 sec, wall time      1.26 sec
  HOMO = -0.255203698253801  LUMO = -0.00846913650503986
  mo_energy =
[-1.01905506e+01 -1.01904196e+01 -1.01903753e+01 -1.01900239e+01
 -1.01899828e+01 -1.01898886e+01 -8.44170784e-01 -7.36396056e-01
 -7.36352100e-01 -5.96101262e-01 -5.96080449e-01 -5.20733069e-01
 -4.56298030e-01 -4.47456407e-01 -4.21340455e-01 -4.21264113e-01
 -3.67522073e-01 -3.45739408e-01 -3.45678109e-01 -2.55236445e-01
 -2.55203698e-01 -8.46913651e-03 -8.43988972e-03  5.75439221e-02
  9.89167877e-02  9.89322853e-02  1.36676840e-01  1.36693162e-01
  1.48559271e-01  1.57494060e-01  2.86830082e-01  2.86857412e-01
  2.99632061e-01  2.99664335e-01  3.66638231e-01  4.08844030e-01
  4.19593105e-01  4.19643535e-01  4.33675546e-01  4.62010922e-01
  4.71081687e-01  5.03935517e-01  5.03951141e-01  5.38784606e-01
  5.38803045e-01  5.38855118e-01  6.01855231e-01  6.01870334e-01
  6.34129025e-01  6.34134009e-01  6.68770468e-01  6.68788014e-01
  6.72921895e-01  7.24124992e-01  7.24162384e-01  7.35450410e-01
  7.39940634e-01  7.72415680e-01  7.72460596e-01  8.33419566e-01
  8.91430029e-01  1.02307921e+00  1.02310048e+00  1.15606610e+00
  1.24505470e+00  1.24513599e+00  1.25241699e+00  1.26490782e+00
  1.26499475e+00  1.30632264e+00  1.30637832e+00  1.51298356e+00
  1.64152961e+00  1.64430091e+00  1.66674096e+00  1.74032585e+00
  1.74585445e+00  1.74596904e+00  1.75476963e+00  1.75477138e+00
  1.75545297e+00  1.75556273e+00  1.82318743e+00  1.82325660e+00
  1.92882345e+00  1.97941966e+00  1.97972536e+00  1.97980178e+00
  1.98176447e+00  1.98187358e+00  2.11151709e+00  2.13221366e+00
  2.13875270e+00  2.13882991e+00  2.30006308e+00  2.30024561e+00
  2.30578969e+00  2.30579082e+00  2.34719973e+00  2.34728442e+00
  2.55512416e+00  2.59756445e+00  2.59768313e+00  2.64426299e+00
  2.71690229e+00  2.71695101e+00  2.71704338e+00  2.85915928e+00
  2.85929022e+00  2.88715775e+00  3.11617014e+00  3.11628056e+00
  3.24167316e+00  3.65307224e+00]
nelec by numeric integration = 42.00002639583778
    CPU time for vxc      3.66 sec, wall time      1.21 sec
E1 = -712.3370959149813  Ecoul = 312.2576610915764  Exc = -34.714718566701904
cycle= 2 E= -232.084727368337  delta_E= 5.07e-07  |g|= 0.00462  |ddm|= 0.0125
    CPU time for cycle= 2      3.87 sec, wall time      1.28 sec
  HOMO = -0.255942209033614  LUMO = -0.00913359934717681
  mo_energy =
[-1.01918735e+01 -1.01917218e+01 -1.01917207e+01 -1.01913294e+01
 -1.01913284e+01 -1.01912151e+01 -8.45125542e-01 -7.37201779e-01
 -7.37177417e-01 -5.96776532e-01 -5.96757172e-01 -5.21312926e-01
 -4.56678006e-01 -4.48343300e-01 -4.21971552e-01 -4.21913738e-01
 -3.68275128e-01 -3.46370890e-01 -3.46311958e-01 -2.55957094e-01
 -2.55942209e-01 -9.13359935e-03 -9.11750933e-03  5.73259647e-02
  9.87313147e-02  9.87370133e-02  1.36523919e-01  1.36533063e-01
  1.47917250e-01  1.57356441e-01  2.86284148e-01  2.86311030e-01
  2.99123568e-01  2.99151531e-01  3.66085972e-01  4.08440683e-01
  4.19191800e-01  4.19231231e-01  4.33293034e-01  4.61539226e-01
  4.70457249e-01  5.03494032e-01  5.03510424e-01  5.38227719e-01
  5.38230967e-01  5.38399567e-01  6.01312900e-01  6.01315303e-01
  6.33733925e-01  6.33741343e-01  6.68363402e-01  6.68366147e-01
  6.72420469e-01  7.23458880e-01  7.23501015e-01  7.34865764e-01
  7.39363766e-01  7.71817117e-01  7.71851467e-01  8.32764525e-01
  8.90839643e-01  1.02258125e+00  1.02259540e+00  1.15556303e+00
  1.24459567e+00  1.24465974e+00  1.25156667e+00  1.26461751e+00
  1.26469798e+00  1.30578393e+00  1.30583622e+00  1.51281984e+00
  1.64096403e+00  1.64374525e+00  1.66649166e+00  1.73949520e+00
  1.74527673e+00  1.74537477e+00  1.75421759e+00  1.75422278e+00
  1.75509398e+00  1.75519309e+00  1.82284534e+00  1.82291830e+00
  1.92836446e+00  1.97895498e+00  1.97923349e+00  1.97929489e+00
  1.98129422e+00  1.98139610e+00  2.11128959e+00  2.13174206e+00
  2.13803994e+00  2.13810787e+00  2.29925880e+00  2.29942717e+00
  2.30506418e+00  2.30506609e+00  2.34648673e+00  2.34658672e+00
  2.55441031e+00  2.59684368e+00  2.59694728e+00  2.64346749e+00
  2.71642741e+00  2.71645951e+00  2.71653267e+00  2.85835140e+00
  2.85846711e+00  2.88647995e+00  3.11543190e+00  3.11555648e+00
  3.24091625e+00  3.65223932e+00]
nelec by numeric integration = 42.00002637358505
    CPU time for vxc      3.52 sec, wall time      1.25 sec
E1 = -712.3744817473702  Ecoul = 312.2976137083439  Exc = -34.71729134798902
cycle= 3 E= -232.084733365246  delta_E= -6e-06  |g|= 0.000181  |ddm|= 0.00562
    CPU time for cycle= 3      3.71 sec, wall time      1.31 sec
  HOMO = -0.255985507848577  LUMO = -0.00918334875972344
  mo_energy =
[-1.01919348e+01 -1.01917886e+01 -1.01917765e+01 -1.01913959e+01
 -1.01913841e+01 -1.01912761e+01 -8.45166106e-01 -7.37254389e-01
 -7.37224959e-01 -5.96833081e-01 -5.96814688e-01 -5.21362845e-01
 -4.56739306e-01 -4.48397382e-01 -4.22020100e-01 -4.21958789e-01
 -3.68318034e-01 -3.46423131e-01 -3.46365314e-01 -2.56005106e-01
 -2.55985508e-01 -9.18334876e-03 -9.16408796e-03  5.72990999e-02
  9.87053715e-02  9.87122748e-02  1.36496140e-01  1.36506081e-01
  1.47866208e-01  1.57330304e-01  2.86247215e-01  2.86273539e-01
  2.99077187e-01  2.99105996e-01  3.66053483e-01  4.08402007e-01
  4.19155930e-01  4.19197352e-01  4.33255050e-01  4.61502085e-01
  4.70419827e-01  5.03454305e-01  5.03469539e-01  5.38188917e-01
  5.38196057e-01  5.38349856e-01  6.01272888e-01  6.01278521e-01
  6.33688908e-01  6.33694604e-01  6.68318163e-01  6.68323428e-01
  6.72382402e-01  7.23424520e-01  7.23464839e-01  7.34821093e-01
  7.39323470e-01  7.71772707e-01  7.71809728e-01  8.32732955e-01
  8.90793700e-01  1.02254328e+00  1.02255906e+00  1.15551175e+00
  1.24454285e+00  1.24460945e+00  1.25151603e+00  1.26457936e+00
  1.26465979e+00  1.30573276e+00  1.30578422e+00  1.51278031e+00
  1.64091727e+00  1.64369523e+00  1.66644538e+00  1.73944312e+00
  1.74522570e+00  1.74532654e+00  1.75417027e+00  1.75417318e+00
  1.75504456e+00  1.75514449e+00  1.82279759e+00  1.82287143e+00
  1.92832094e+00  1.97891057e+00  1.97918769e+00  1.97925127e+00
  1.98124556e+00  1.98134844e+00  2.11124543e+00  2.13169294e+00
  2.13798670e+00  2.13805743e+00  2.29920223e+00  2.29937421e+00
  2.30501673e+00  2.30501787e+00  2.34644216e+00  2.34653902e+00
  2.55436403e+00  2.59678585e+00  2.59689308e+00  2.64340933e+00
  2.71637646e+00  2.71640630e+00  2.71648238e+00  2.85829934e+00
  2.85841832e+00  2.88642558e+00  3.11538162e+00  3.11550355e+00
  3.24086272e+00  3.65218385e+00]
nelec by numeric integration = 42.00002637162292
    CPU time for vxc      3.23 sec, wall time      1.33 sec
E1 = -712.375415565316  Ecoul = 312.29866031600716  Exc = -34.717404146205126
cycle= 4 E= -232.084733373744  delta_E= -8.5e-09  |g|= 4.47e-05  |ddm|= 0.000215
    CPU time for cycle= 4      3.43 sec, wall time      1.40 sec
  HOMO = -0.255993299047874  LUMO = -0.00918602800604594
  mo_energy =
[-1.01919328e+01 -1.01917807e+01 -1.01917803e+01 -1.01913883e+01
 -1.01913879e+01 -1.01912743e+01 -8.45173541e-01 -7.37256760e-01
 -7.37232654e-01 -5.96836260e-01 -5.96817885e-01 -5.21367049e-01
 -4.56741132e-01 -4.48400952e-01 -4.22022419e-01 -4.21965760e-01
 -3.68324156e-01 -3.46426445e-01 -3.46368773e-01 -2.56008020e-01
 -2.55993299e-01 -9.18602801e-03 -9.17026988e-03  5.72964949e-02
  9.87044554e-02  9.87090839e-02  1.36495381e-01  1.36503680e-01
  1.47862376e-01  1.57328560e-01  2.86243036e-01  2.86269441e-01
  2.99074762e-01  2.99102444e-01  3.66047199e-01  4.08399546e-01
  4.19152617e-01  4.19191310e-01  4.33250633e-01  4.61497971e-01
  4.70414488e-01  5.03450484e-01  5.03466216e-01  5.38186703e-01
  5.38189725e-01  5.38348087e-01  6.01271107e-01  6.01273300e-01
  6.33685590e-01  6.33694223e-01  6.68317898e-01  6.68319546e-01
  6.72379335e-01  7.23419251e-01  7.23461085e-01  7.34818009e-01
  7.39318774e-01  7.71771737e-01  7.71805908e-01  8.32727908e-01
  8.90792134e-01  1.02253879e+00  1.02255266e+00  1.15550734e+00
  1.24454081e+00  1.24460329e+00  1.25151122e+00  1.26457623e+00
  1.26465541e+00  1.30572908e+00  1.30578012e+00  1.51277745e+00
  1.64091253e+00  1.64369161e+00  1.66644238e+00  1.73943830e+00
  1.74522326e+00  1.74532004e+00  1.75416588e+00  1.75417014e+00
  1.75504287e+00  1.75514052e+00  1.82279438e+00  1.82286870e+00
  1.92831652e+00  1.97890685e+00  1.97918503e+00  1.97924502e+00
  1.98124255e+00  1.98134375e+00  2.11124332e+00  2.13168958e+00
  2.13798439e+00  2.13805248e+00  2.29919983e+00  2.29936797e+00
  2.30501205e+00  2.30501396e+00  2.34643447e+00  2.34653527e+00
  2.55435826e+00  2.59678472e+00  2.59688796e+00  2.64340559e+00
  2.71637296e+00  2.71640530e+00  2.71647671e+00  2.85829695e+00
  2.85841197e+00  2.88642212e+00  3.11537497e+00  3.11550045e+00
  3.24085920e+00  3.65217893e+00]
nelec by numeric integration = 42.000026371848115
    CPU time for vxc      2.76 sec, wall time      2.57 sec
E1 = -712.375474194301  Ecoul = 312.2987172519412  Exc = -34.71740245340545
cycle= 5 E= -232.084733373996  delta_E= -2.51e-10  |g|= 2.91e-05  |ddm|= 9.87e-05
    CPU time for cycle= 5      2.96 sec, wall time      2.66 sec
  HOMO = -0.255991485312481  LUMO = -0.00918896490872963
  mo_energy =
[-1.01919340e+01 -1.01917884e+01 -1.01917745e+01 -1.01913960e+01
 -1.01913821e+01 -1.01912749e+01 -8.45174804e-01 -7.37260879e-01
 -7.37230594e-01 -5.96837077e-01 -5.96818663e-01 -5.21367700e-01
 -4.56741519e-01 -4.48401977e-01 -4.22025854e-01 -4.21963785e-01
 -3.68325223e-01 -3.46427260e-01 -3.46369375e-01 -2.56011854e-01
 -2.55991485e-01 -9.18896491e-03 -9.16913802e-03  5.72961008e-02
  9.87027902e-02  9.87100809e-02  1.36494124e-01  1.36504341e-01
  1.47861548e-01  1.57328258e-01  2.86242323e-01  2.86268660e-01
  2.99073474e-01  2.99102448e-01  3.66046303e-01  4.08398986e-01
  4.19150366e-01  4.19192239e-01  4.33250099e-01  4.61497288e-01
  4.70413567e-01  5.03450142e-01  5.03465317e-01  5.38183505e-01
  5.38191298e-01  5.38347551e-01  6.01268374e-01  6.01274546e-01
  6.33686877e-01  6.33692074e-01  6.68315328e-01  6.68321190e-01
  6.72378670e-01  7.23419246e-01  7.23459343e-01  7.34817376e-01
  7.39318068e-01  7.71769387e-01  7.71806843e-01  8.32727012e-01
  8.90791490e-01  1.02253694e+00  1.02255301e+00  1.15550670e+00
  1.24453782e+00  1.24460512e+00  1.25151010e+00  1.26457500e+00
  1.26465567e+00  1.30572812e+00  1.30577970e+00  1.51277716e+00
  1.64091182e+00  1.64369093e+00  1.66644204e+00  1.73943721e+00
  1.74522018e+00  1.74532171e+00  1.75416592e+00  1.75416864e+00
  1.75504107e+00  1.75514141e+00  1.82279423e+00  1.82286795e+00
  1.92831591e+00  1.97890625e+00  1.97918229e+00  1.97924646e+00
  1.98124098e+00  1.98134416e+00  2.11124303e+00  2.13168904e+00
  2.13798196e+00  2.13805310e+00  2.29919658e+00  2.29936916e+00
  2.30501166e+00  2.30501266e+00  2.34643585e+00  2.34653208e+00
  2.55435735e+00  2.59678154e+00  2.59688941e+00  2.64340459e+00
  2.71637238e+00  2.71640217e+00  2.71647890e+00  2.85829370e+00
  2.85841331e+00  2.88642131e+00  3.11537621e+00  3.11549755e+00
  3.24085834e+00  3.65217799e+00]
nelec by numeric integration = 42.000026371942695
    CPU time for vxc      2.67 sec, wall time      3.34 sec
E1 = -712.3755052252167  Ecoul = 312.2987500468909  Exc = -34.71740421705152
Extra cycle  E= -232.084733373608  delta_E= 3.88e-10  |g|= 4.74e-05  |ddm|= 7.69e-05
    CPU time for scf_cycle     29.12 sec, wall time     14.93 sec
    CPU time for SCF     29.14 sec, wall time     14.95 sec
converged SCF energy = -232.084733373608


******** <class 'pyscf.grad.rhf.Gradients_Scanner'> for <class 'pyscf.scf.hf.RKS_Scanner'> ********
unit = Eh/Bohr
max_memory 4000 MB (current use 0 MB)
grid_response = False
Computing Gradients of NR-HF Coulomb repulsion
    CPU time for vxc      6.87 sec, wall time      6.63 sec
    CPU time for vj and vk     33.87 sec, wall time     28.88 sec
    CPU time for gradients of 2e part     40.75 sec, wall time     35.51 sec
gradients of electronic part
         x                y                z
0 C    -4.1940438054    -7.2669928490    -0.1015550820
1 C     4.1940464667    -7.2668236730     0.1013632627
2 C    -8.3898421385    -0.0000162261    -0.2027483311
3 C     8.3899075928     0.0000148202     0.2028691942
4 C    -4.1940832825     7.2668830402    -0.1014249588
5 C     4.1940078269     7.2669327050     0.1014934257
6 H    -1.2309686799    -2.1330551547    -0.0297665016
7 H     1.2309995832    -2.1330474828     0.0297661586
8 H    -2.4621688167     0.0000015296    -0.0595709342
9 H     2.4621705385    -0.0000018694     0.0594965982
10 H    -1.2309955861     2.1330454194    -0.0297277814
11 H     1.2309703021     2.1330597408     0.0298049497
    CPU time for SCF gradients     40.89 sec, wall time     35.80 sec
--------------- RKS_Scanner gradients ---------------
         x                y                z
0 C    -0.0000479242    -0.0000801475    -0.0000024104
1 C     0.0000360846    -0.0000734460    -0.0000005263
2 C    -0.0001590724    -0.0000014193    -0.0000006172
3 C     0.0001683086     0.0000001748     0.0000061633
4 C    -0.0000459460     0.0000761263    -0.0000023925
5 C     0.0000397245     0.0000769822    -0.0000004725
6 H    -0.0000426796    -0.0000645046    -0.0000002440
7 H     0.0000438989    -0.0000654541     0.0000015269
8 H    -0.0000808002     0.0000001021    -0.0000029122
9 H     0.0000865080     0.0000000059     0.0000005465
10 H    -0.0000426060     0.0000649139    -0.0000002243
11 H     0.0000445047     0.0000666662     0.0000015629
----------------------------------------------
cycle 2: E = -232.084733374  dE = -2.95897e-05  norm(grad) = 0.000350978

Geometry optimization cycle 3
Cartesian coordinates (Angstrom)
 Atom        New coordinates             dX        dY        dZ
   C  -0.659766  -1.211615   3.986773    0.000133 -0.000049 -0.000002
   C   0.738642  -1.211649   4.020606   -0.000083 -0.000105  0.000006
   C  -1.358766  -0.000048   3.969881    0.000607  0.000010 -0.000003
   C   1.437573  -0.000051   4.037518   -0.000639 -0.000009 -0.000003
   C  -0.659797   1.211534   3.986795    0.000103  0.000083 -0.000003
   C   0.738610   1.211530   4.020628   -0.000115  0.000071  0.000006
   H  -1.206309  -2.158400   3.973549    0.000042  0.000120 -0.000016
   H   1.285185  -2.158432   4.033821   -0.000004  0.000058  0.000006
   H  -2.451731  -0.000059   3.943436    0.000712 -0.000003  0.000004
   H   2.530531  -0.000040   4.063948   -0.000753  0.000005  0.000017
   H  -1.206341   2.158318   3.973588    0.000023 -0.000079 -0.000017
   H   1.285150   2.158312   4.033859   -0.000025 -0.000101  0.000005
New geometry
   1 C     -0.659766096126  -1.211615142029   3.986773387658 AA   -1.246777227951  -2.289620786811   7.533909823378 Bohr

   2 C      0.738641891796  -1.211649474415   4.020606167689 AA    1.395830879625  -2.289685665618   7.597844511670 Bohr

   3 C     -1.358765628565  -0.000048356012   3.969880942226 AA   -2.567694905460  -0.000091379620   7.501987727937 Bohr

   4 C      1.437572611999  -0.000050658803   4.037518056750 AA    2.716618520855  -0.000095731264   7.629803350244 Bohr

   5 C     -0.659797296658   1.211534107551   3.986794761220 AA   -1.246836188412   2.289467653841   7.533950213557 Bohr

   6 C      0.738609630984   1.211530312028   4.020627517056 AA    1.395769915525   2.289460481342   7.597884856125 Bohr

   7 H     -1.206308983254  -2.158400260686   3.973548921474 AA   -2.279593599952  -4.078785359887   7.508919204147 Bohr

   8 H      1.285185459213  -2.158431609590   4.033820773390 AA    2.428648537186  -4.078844600730   7.622816497289 Bohr

   9 H     -2.451730567503  -0.000059372660   3.943435600880 AA   -4.633099303806  -0.000112198066   7.452013275522 Bohr

  10 H      2.530530541005  -0.000039801451   4.063948446269 AA    4.782009672348  -0.000075213842   7.679749547800 Bohr

  11 H     -1.206341094787   2.158318065822   3.973587612578 AA   -2.279654281956   4.078630034105   7.508992319736 Bohr

  12 H      1.285150478048   2.158312158298   4.033859417224 AA    2.428582432364   4.078618870502   7.622889523551 Bohr



******** <class 'pyscf.scf.hf.RKS_Scanner'> ********
method = RKS_Scanner
initial guess = minao
damping factor = 0
level_shift factor = 0
DIIS = <class 'pyscf.scf.diis.CDIIS'>
diis_start_cycle = 1
diis_space = 8
SCF conv_tol = 1e-09
SCF conv_tol_grad = None
SCF max_cycles = 300
direct_scf = True
direct_scf_tol = 1e-13
chkfile to save SCF result = /var/folders/_x/hdd0n3v13rgc0_p09wk_rwl40000gn/T/tmpz1i89x9o
max_memory 4000 MB (current use 0 MB)
XC library pyscf.dft.libxc version 6.2.2
    S. Lehtola, C. Steigemann, M. J.T. Oliveira, and M. A.L. Marques.,  SoftwareX 7, 1–5 (2018)
XC functionals = b3lyp
    P. J. Stephens, F. J. Devlin, C. F. Chabalowski, and M. J. Frisch.,  J. Phys. Chem. 98, 11623 (1994)
radial grids: 
    Treutler-Ahlrichs [JCP 102, 346 (1995); DOI:10.1063/1.469408] (M4) radial grids
    
becke partition: Becke, JCP 88, 2547 (1988); DOI:10.1063/1.454033
pruning grids: <function nwchem_prune at 0x117a42480>
grids dens level: 3
symmetrized grids: False
atomic radii adjust function: <function treutler_atomic_radii_adjust at 0x117a42a20>
small_rho_cutoff = 1e-07
Set gradient conv threshold to 3.16228e-05
atom C rad-grids = 75, ang-grids = [ 50  50  50  50  50  50  50  50  50  50  50  50  50  50  50  50  50  50
  50  50  50  50  50  86  86  86  86  86  86  86  86  86  86 266 266 266
 266 266 266 266 302 302 302 302 302 302 302 302 302 302 302 302 302 302
 302 302 302 302 302 302 266 266 266 266 266 266 266 266 266 266 266 266
 266 266 266]
atom H rad-grids = 50, ang-grids = [ 50  50  50  50  50  50  50  50  50  50  50  50  50  50  86  86  86  86
 266 266 266 266 302 302 302 302 302 302 302 302 302 302 302 302 302 266
 266 266 266 266 266 266 266 266 266 266 266 266 266 266]
tot_boxes 2448, boxes in each direction [15 14  7]
Padding 4 grids
tot grids = 143560
Drop grids 22966
prune_by_density_: 6 padding grids
    CPU time for setting up grids      2.02 sec, wall time      1.31 sec
nelec by numeric integration = 42.000937176121816
    CPU time for vxc      3.05 sec, wall time      1.90 sec
E1 = -712.4401910831336  Ecoul = 312.33655931817765  Exc = -34.71857508766689
init E= -232.085347343411
cond(S) = 19765.94299929698
    CPU time for initialize scf      8.58 sec, wall time      4.45 sec
  HOMO = -0.255769237472803  LUMO = -0.00889612352807626
  mo_energy =
[-1.01916258e+01 -1.01914870e+01 -1.01914569e+01 -1.01910929e+01
 -1.01910632e+01 -1.01909627e+01 -8.45016643e-01 -7.37071179e-01
 -7.37034697e-01 -5.96629444e-01 -5.96624438e-01 -5.21206395e-01
 -4.56513463e-01 -4.48198011e-01 -4.21820777e-01 -4.21750244e-01
 -3.68142296e-01 -3.46206783e-01 -3.46118605e-01 -2.55787387e-01
 -2.55769237e-01 -8.89612353e-03 -8.89457763e-03  5.74807561e-02
  9.88807313e-02  9.88896299e-02  1.36685100e-01  1.36704007e-01
  1.48196711e-01  1.57536945e-01  2.86548876e-01  2.86601375e-01
  2.99382932e-01  2.99436686e-01  3.66249967e-01  4.08567141e-01
  4.19348761e-01  4.19374728e-01  4.33525926e-01  4.61871075e-01
  4.70631878e-01  5.03696621e-01  5.03725489e-01  5.38381466e-01
  5.38400524e-01  5.38731927e-01  6.01507685e-01  6.01514423e-01
  6.33947101e-01  6.33969037e-01  6.68566826e-01  6.68588986e-01
  6.72636478e-01  7.23732396e-01  7.23833262e-01  7.35178466e-01
  7.39611222e-01  7.72070997e-01  7.72128028e-01  8.33124971e-01
  8.91171854e-01  1.02281834e+00  1.02289508e+00  1.15569940e+00
  1.24480197e+00  1.24485494e+00  1.25177325e+00  1.26486933e+00
  1.26498815e+00  1.30599775e+00  1.30607616e+00  1.51307323e+00
  1.64116212e+00  1.64405087e+00  1.66673759e+00  1.73985669e+00
  1.74557579e+00  1.74570364e+00  1.75447993e+00  1.75451261e+00
  1.75544515e+00  1.75550128e+00  1.82317276e+00  1.82317848e+00
  1.92856608e+00  1.97933360e+00  1.97949362e+00  1.97956552e+00
  1.98163730e+00  1.98181245e+00  2.11139445e+00  2.13218737e+00
  2.13835868e+00  2.13846174e+00  2.29961941e+00  2.29983560e+00
  2.30550687e+00  2.30553460e+00  2.34682919e+00  2.34701727e+00
  2.55495306e+00  2.59731745e+00  2.59742523e+00  2.64405394e+00
  2.71678667e+00  2.71684768e+00  2.71691450e+00  2.85888890e+00
  2.85905006e+00  2.88701699e+00  3.11602365e+00  3.11621807e+00
  3.24157658e+00  3.65315770e+00]
nelec by numeric integration = 42.00002620454177
    CPU time for vxc      3.08 sec, wall time      2.30 sec
E1 = -712.4256028083425  Ecoul = 312.3220618527926  Exc = -34.71805201275503
cycle= 1 E= -232.084733459093  delta_E= 0.000614  |g|= 0.000538  |ddm|= 0.00375
    CPU time for cycle= 1      3.30 sec, wall time      2.37 sec
  HOMO = -0.256072570265409  LUMO = -0.00923465144508059
  mo_energy =
[-1.01920252e+01 -1.01919101e+01 -1.01918270e+01 -1.01915162e+01
 -1.01914233e+01 -1.01913439e+01 -8.45381856e-01 -7.37435256e-01
 -7.37343747e-01 -5.96943275e-01 -5.96925580e-01 -5.21495392e-01
 -4.56763827e-01 -4.48552908e-01 -4.22159286e-01 -4.22023713e-01
 -3.68474223e-01 -3.46516438e-01 -3.46415999e-01 -2.56143680e-01
 -2.56072570e-01 -9.23465145e-03 -9.18697435e-03  5.72865291e-02
  9.86805756e-02  9.87208630e-02  1.36510479e-01  1.36527467e-01
  1.47890033e-01  1.57367634e-01  2.86263088e-01  2.86321419e-01
  2.99100085e-01  2.99168261e-01  3.65953022e-01  4.08316064e-01
  4.19062665e-01  4.19137286e-01  4.33276047e-01  4.61607054e-01
  4.70325168e-01  5.03428423e-01  5.03466393e-01  5.38084758e-01
  5.38118810e-01  5.38474049e-01  6.01211128e-01  6.01248305e-01
  6.33704084e-01  6.33741542e-01  6.68317874e-01  6.68358363e-01
  6.72368223e-01  7.23433158e-01  7.23520385e-01  7.34898910e-01
  7.39325649e-01  7.71767737e-01  7.71858429e-01  8.32819758e-01
  8.90893271e-01  1.02252218e+00  1.02262635e+00  1.15541834e+00
  1.24448847e+00  1.24462230e+00  1.25141454e+00  1.26461480e+00
  1.26477598e+00  1.30569386e+00  1.30580254e+00  1.51287445e+00
  1.64087075e+00  1.64376429e+00  1.66651507e+00  1.73950421e+00
  1.74524505e+00  1.74544658e+00  1.75419251e+00  1.75422028e+00
  1.75517069e+00  1.75528464e+00  1.82291981e+00  1.82294892e+00
  1.92829522e+00  1.97906554e+00  1.97917775e+00  1.97932202e+00
  1.98135159e+00  1.98156039e+00  2.11118364e+00  2.13192228e+00
  2.13802352e+00  2.13815270e+00  2.29924778e+00  2.29951114e+00
  2.30518251e+00  2.30522000e+00  2.34653432e+00  2.34665781e+00
  2.55462433e+00  2.59697004e+00  2.59712996e+00  2.64371080e+00
  2.71652152e+00  2.71653477e+00  2.71669143e+00  2.85851965e+00
  2.85873983e+00  2.88670573e+00  3.11573177e+00  3.11586503e+00
  3.24125165e+00  3.65281356e+00]
nelec by numeric integration = 42.00002619974393
    CPU time for vxc      3.52 sec, wall time      1.49 sec
E1 = -712.4339433653304  Ecoul = 312.3309486393031  Exc = -34.71859821441527
cycle= 2 E= -232.084733431231  delta_E= 2.79e-08  |g|= 0.000655  |ddm|= 0.00167
    CPU time for cycle= 2      3.74 sec, wall time      1.56 sec
  HOMO = -0.256013684402873  LUMO = -0.0091496231656014
  mo_energy =
[-1.01918778e+01 -1.01917262e+01 -1.01917237e+01 -1.01913334e+01
 -1.01913303e+01 -1.01912175e+01 -8.45276896e-01 -7.37326778e-01
 -7.37278143e-01 -5.96872135e-01 -5.96857368e-01 -5.21435193e-01
 -4.56728510e-01 -4.48459076e-01 -4.22071518e-01 -4.21976381e-01
 -3.68392670e-01 -3.46448268e-01 -3.46353471e-01 -2.56046143e-01
 -2.56013684e-01 -9.14962317e-03 -9.13018569e-03  5.73084266e-02
  9.87101708e-02  9.87288136e-02  1.36532853e-01  1.36534091e-01
  1.47957033e-01  1.57380212e-01  2.86321958e-01  2.86378755e-01
  2.99157242e-01  2.99216066e-01  3.66013558e-01  4.08357145e-01
  4.19117831e-01  4.19168391e-01  4.33315737e-01  4.61656803e-01
  4.70392681e-01  5.03473286e-01  5.03512860e-01  5.38161548e-01
  5.38162738e-01  5.38519307e-01  6.01282746e-01  6.01292689e-01
  6.33756469e-01  6.33766797e-01  6.68375293e-01  6.68384047e-01
  6.72420723e-01  7.23499515e-01  7.23597398e-01  7.34959882e-01
  7.39386941e-01  7.71841893e-01  7.71910181e-01  8.32891206e-01
  8.90953928e-01  1.02258371e+00  1.02267220e+00  1.15546989e+00
  1.24455468e+00  1.24465082e+00  1.25150539e+00  1.26465151e+00
  1.26479820e+00  1.30575324e+00  1.30585410e+00  1.51288872e+00
  1.64093000e+00  1.64382155e+00  1.66653813e+00  1.73959259e+00
  1.74532421e+00  1.74548948e+00  1.75425305e+00  1.75427352e+00
  1.75521775e+00  1.75530867e+00  1.82295725e+00  1.82297764e+00
  1.92834275e+00  1.97911320e+00  1.97924613e+00  1.97935752e+00
  1.98140758e+00  1.98160101e+00  2.11120407e+00  2.13197006e+00
  2.13810869e+00  2.13821785e+00  2.29934870e+00  2.29958160e+00
  2.30526253e+00  2.30529354e+00  2.34659319e+00  2.34674992e+00
  2.55470079e+00  2.59706186e+00  2.59718931e+00  2.64379401e+00
  2.71657056e+00  2.71660624e+00  2.71672017e+00  2.85862280e+00
  2.85880988e+00  2.88677603e+00  3.11579366e+00  3.11595760e+00
  3.24133085e+00  3.65290174e+00]
nelec by numeric integration = 42.00002620249329
    CPU time for vxc      3.18 sec, wall time      1.45 sec
E1 = -712.4298471291687  Ecoul = 312.32657941928267  Exc = -34.718325344669616
cycle= 3 E= -232.084733545344  delta_E= -1.14e-07  |g|= 6.04e-05  |ddm|= 0.000761
    CPU time for cycle= 3      3.40 sec, wall time      1.52 sec
  HOMO = -0.256005148231075  LUMO = -0.00914549520074075
  mo_energy =
[-1.01918691e+01 -1.01917221e+01 -1.01917104e+01 -1.01913287e+01
 -1.01913173e+01 -1.01912086e+01 -8.45269157e-01 -7.37322579e-01
 -7.37269047e-01 -5.96865775e-01 -5.96852543e-01 -5.21430182e-01
 -4.56724942e-01 -4.48452151e-01 -4.22067469e-01 -4.21969634e-01
 -3.68386270e-01 -3.46441955e-01 -3.46349281e-01 -2.56042338e-01
 -2.56005148e-01 -9.14549520e-03 -9.12292671e-03  5.73105437e-02
  9.87118405e-02  9.87308184e-02  1.36534372e-01  1.36535753e-01
  1.47962485e-01  1.57381679e-01  2.86327107e-01  2.86382834e-01
  2.99161222e-01  2.99220808e-01  3.66018579e-01  4.08360623e-01
  4.19120993e-01  4.19172963e-01  4.33319352e-01  4.61660952e-01
  4.70398085e-01  5.03478086e-01  5.03515958e-01  5.38164459e-01
  5.38169486e-01  5.38523158e-01  6.01285715e-01  6.01298942e-01
  6.33759451e-01  6.33770647e-01  6.68377940e-01  6.68388527e-01
  6.72424938e-01  7.23505938e-01  7.23601728e-01  7.34964682e-01
  7.39391912e-01  7.71845283e-01  7.71916328e-01  8.32896574e-01
  8.90958516e-01  1.02258754e+00  1.02267752e+00  1.15547449e+00
  1.24455834e+00  1.24465585e+00  1.25151228e+00  1.26465504e+00
  1.26480067e+00  1.30575892e+00  1.30585795e+00  1.51289073e+00
  1.64093495e+00  1.64382633e+00  1.66654081e+00  1.73959939e+00
  1.74532834e+00  1.74549551e+00  1.75425628e+00  1.75427982e+00
  1.75522132e+00  1.75531192e+00  1.82296151e+00  1.82297990e+00
  1.92834693e+00  1.97911726e+00  1.97925001e+00  1.97936257e+00
  1.98141153e+00  1.98160552e+00  2.11120640e+00  2.13197421e+00
  2.13811305e+00  2.13822522e+00  2.29935353e+00  2.29959006e+00
  2.30526801e+00  2.30529980e+00  2.34660055e+00  2.34675460e+00
  2.55470687e+00  2.59706605e+00  2.59719694e+00  2.64380053e+00
  2.71657449e+00  2.71660980e+00  2.71672563e+00  2.85862786e+00
  2.85881782e+00  2.88678164e+00  3.11580080e+00  3.11596262e+00
  3.24133690e+00  3.65290854e+00]
nelec by numeric integration = 42.000026202557564
    CPU time for vxc      3.38 sec, wall time      1.36 sec
E1 = -712.4295889459195  Ecoul = 312.32630374442476  Exc = -34.71830785383265
cycle= 4 E= -232.084733546116  delta_E= -7.72e-10  |g|= 2.61e-05  |ddm|= 8.71e-05
    CPU time for cycle= 4      3.59 sec, wall time      1.44 sec
  HOMO = -0.256007367136557  LUMO = -0.00914448969823003
  mo_energy =
[-1.01918720e+01 -1.01917210e+01 -1.01917170e+01 -1.01913276e+01
 -1.01913243e+01 -1.01912114e+01 -8.45270201e-01 -7.37321287e-01
 -7.37271738e-01 -5.96865723e-01 -5.96853311e-01 -5.21430332e-01
 -4.56724523e-01 -4.48453139e-01 -4.22065664e-01 -4.21972139e-01
 -3.68386758e-01 -3.46441661e-01 -3.46350234e-01 -2.56041018e-01
 -2.56007367e-01 -9.14448970e-03 -9.12460355e-03  5.73107575e-02
  9.87133372e-02  9.87297200e-02  1.36535045e-01  1.36535671e-01
  1.47962216e-01  1.57382012e-01  2.86327011e-01  2.86382321e-01
  2.99161587e-01  2.99220168e-01  3.66018471e-01  4.08360566e-01
  4.19122462e-01  4.19171826e-01  4.33319542e-01  4.61660862e-01
  4.70397775e-01  5.03478235e-01  5.03515849e-01  5.38165705e-01
  5.38167666e-01  5.38523103e-01  6.01286672e-01  6.01297357e-01
  6.33761058e-01  6.33769118e-01  6.68379655e-01  6.68386766e-01
  6.72424681e-01  7.23504904e-01  7.23601480e-01  7.34964293e-01
  7.39391644e-01  7.71845768e-01  7.71914718e-01  8.32895949e-01
  8.90957949e-01  1.02258832e+00  1.02267673e+00  1.15547464e+00
  1.24456071e+00  1.24465390e+00  1.25151152e+00  1.26465649e+00
  1.26480004e+00  1.30575964e+00  1.30585723e+00  1.51289140e+00
  1.64093484e+00  1.64382619e+00  1.66654140e+00  1.73959871e+00
  1.74533019e+00  1.74549336e+00  1.75425621e+00  1.75427967e+00
  1.75522308e+00  1.75531075e+00  1.82296265e+00  1.82297945e+00
  1.92834702e+00  1.97911723e+00  1.97925191e+00  1.97936068e+00
  1.98141246e+00  1.98160470e+00  2.11120687e+00  2.13197425e+00
  2.13811338e+00  2.13822386e+00  2.29935434e+00  2.29958802e+00
  2.30526767e+00  2.30529889e+00  2.34659845e+00  2.34675593e+00
  2.55470647e+00  2.59706708e+00  2.59719486e+00  2.64379997e+00
  2.71657485e+00  2.71661215e+00  2.71672296e+00  2.85862874e+00
  2.85881533e+00  2.88678126e+00  3.11579870e+00  3.11596376e+00
  3.24133623e+00  3.65290788e+00]
nelec by numeric integration = 42.0000262025712
    CPU time for vxc      3.52 sec, wall time      1.36 sec
E1 = -712.4296701881491  Ecoul = 312.32639027633314  Exc = -34.718313143068315
Extra cycle  E= -232.084733545672  delta_E= 4.43e-10  |g|= 4.69e-05  |ddm|= 8.13e-05
    CPU time for scf_cycle     26.35 sec, wall time     12.77 sec
    CPU time for SCF     26.38 sec, wall time     12.78 sec
converged SCF energy = -232.084733545672


******** <class 'pyscf.grad.rhf.Gradients_Scanner'> for <class 'pyscf.scf.hf.RKS_Scanner'> ********
unit = Eh/Bohr
max_memory 4000 MB (current use 0 MB)
grid_response = False
Computing Gradients of NR-HF Coulomb repulsion
    CPU time for vxc      7.68 sec, wall time      3.56 sec
    CPU time for vj and vk     31.24 sec, wall time     10.30 sec
    CPU time for gradients of 2e part     38.92 sec, wall time     13.87 sec
gradients of electronic part
         x                y                z
0 C    -4.1965563871    -7.2693838873    -0.1016295859
1 C     4.1967384525    -7.2696887325     0.1014970888
2 C    -8.3899364939    -0.0000828692    -0.2029010952
3 C     8.3897677446     0.0000789530     0.2029051530
4 C    -4.1966664371     7.2695316160    -0.1014995570
5 C     4.1966308691     7.2695406109     0.1016271717
6 H    -1.2314362757    -2.1332678866    -0.0298005289
7 H     1.2314382552    -2.1332569794     0.0297755517
8 H    -2.4627302526    -0.0000224009    -0.0595830688
9 H     2.4627526675     0.0000222112     0.0595558147
10 H    -1.2314389214     2.1332603775    -0.0297615461
11 H     1.2314367736     2.1332689870     0.0298146019
    CPU time for SCF gradients     39.07 sec, wall time     13.91 sec
--------------- RKS_Scanner gradients ---------------
         x                y                z
0 C    -0.0000198412    -0.0000316525    -0.0000006963
1 C     0.0000448319    -0.0000524206     0.0000006980
2 C     0.0001229213     0.0000005380     0.0000039157
3 C    -0.0001428282     0.0000021448    -0.0000031831
4 C    -0.0000246388     0.0000438276    -0.0000008184
5 C     0.0000376696     0.0000409442     0.0000005168
6 H     0.0000030482    -0.0000192720     0.0000004790
7 H    -0.0000040351    -0.0000175816    -0.0000001102
8 H    -0.0000004264     0.0000008928    -0.0000000145
9 H    -0.0000126383    -0.0000011233    -0.0000010863
10 H     0.0000023347     0.0000184368     0.0000004637
11 H    -0.0000064029     0.0000152657    -0.0000001645
----------------------------------------------
[...]
    CPU time for vxc      2.80 sec, wall time      1.91 sec
E1 = -709.5777177211722  Ecoul = 308.7993985027602  Exc = -34.76832824395112
init E= -232.809787953151
cond(S) = 19765.94299929698
    CPU time for initialize scf      9.14 sec, wall time      5.70 sec
  HOMO = -0.303332261211032  LUMO = -0.0924852970593205
  mo_energy =
[-10.27702747 -10.27626839 -10.27626712 -10.27543745 -10.2754366
 -10.27523551  -1.02963102  -0.87484435  -0.87478026  -0.68683144
  -0.68682574  -0.58374984  -0.51060851  -0.50941159  -0.47094753
  -0.47085485  -0.41797009  -0.38893849  -0.38885021  -0.30336597
  -0.30333226  -0.0924853   -0.09247434   0.01464945   0.05971421
   0.06189013   0.06190028   0.0994572    0.09947711   0.122456
   0.21464432   0.21469969   0.22652646   0.22658996   0.31056284
   0.35570655   0.37114801   0.37119085   0.37547408   0.39125263
   0.4103798    0.44305155   0.44307982   0.46514695   0.48181101
   0.48181159   0.54256179   0.54256896   0.56818391   0.56818658
   0.60507045   0.60509959   0.61614988   0.65448045   0.65452634
   0.6550312    0.67327198   0.70107787   0.70113492   0.76910548
   0.82161679   0.96540394   0.96549446   1.08689763   1.16235215
   1.17830532   1.17838957   1.21601802   1.2161508    1.23386324
   1.23395593   1.46608269   1.56663369   1.56745827   1.61474174
   1.64704202   1.66803228   1.6681918    1.68239571   1.68243312
   1.69182277   1.69188162   1.76293852   1.76294545   1.86299531
   1.91017265   1.91096802   1.91106549   1.91209773   1.91227857
   2.05277141   2.05287962   2.0600154    2.06208988   2.20579022
   2.20601647   2.21539163   2.21542405   2.26394978   2.26410482
   2.47062143   2.50598736   2.50609745   2.54867031   2.6427441
   2.64284804   2.64464442   2.75908316   2.75927108   2.7995273
   3.02491509   3.02508079   3.14423861   3.55121988]
nelec by numeric integration = 42.000024767164135
    CPU time for vxc      3.00 sec, wall time      2.11 sec
E1 = -715.1943828288112  Ecoul = 315.33741242538997  Exc = -34.932000102547846
cycle= 1 E= -232.052110996757  delta_E= 0.758  |g|= 0.324  |ddm|= 4.55
    CPU time for cycle= 1      3.24 sec, wall time      2.28 sec
  HOMO = -0.200976600683605  LUMO = 0.0413992893182889
  mo_energy =
[-10.08567531 -10.08553973 -10.08550949 -10.08514535 -10.08511363
 -10.08501591  -0.77483156  -0.67664682  -0.67659129  -0.54599195
  -0.5459738   -0.47599905  -0.42624364  -0.3795647   -0.37179043
  -0.37167609  -0.3118465   -0.29555792  -0.29546457  -0.20102303
  -0.2009766    0.04139929   0.04143177   0.07393567   0.11350004
   0.11352679   0.14869049   0.14870087   0.16802697   0.19624177
   0.3264654    0.32651328   0.33749263   0.33755093   0.40431984
   0.4405411    0.4496643    0.44972793   0.4644869    0.49569576
   0.51768904   0.5374566    0.53750232   0.57221921   0.58153713
   0.5815503    0.64432344   0.64434412   0.66538593   0.66540591
   0.70068926   0.70072456   0.71246877   0.77712325   0.77720955
   0.77724519   0.78458656   0.82082892   0.82091218   0.88789337
   0.94043118   1.06061788   1.06069915   1.19366975   1.28011488
   1.28022197   1.28724349   1.28739026   1.31708503   1.34669972
   1.34680025   1.5257112    1.68436527   1.68495586   1.6860238
   1.78262236   1.78273911   1.7901586    1.79032547   1.79782012
   1.79783508   1.80343344   1.84926257   1.84927873   1.96450674
   2.01748987   2.01857691   2.01870271   2.01885519   2.01906203
   2.12956772   2.16884174   2.19464472   2.19476196   2.36171402
   2.36174885   2.36218796   2.36243406   2.40090405   2.40105394
   2.60956196   2.65442697   2.65457922   2.7057487    2.75429583
   2.75652369   2.75664955   2.92201995   2.92220965   2.93997213
   3.17262513   3.17277562   3.30076244   3.71727312]
nelec by numeric integration = 42.00002819304645
    CPU time for vxc      2.96 sec, wall time      2.18 sec
E1 = -709.4432128233726  Ecoul = 309.1695542702579  Exc = -34.51265482726654
cycle= 2 E= -232.049453871169  delta_E= 0.00266  |g|= 0.354  |ddm|= 1.03
    CPU time for cycle= 2      3.21 sec, wall time      2.31 sec
  HOMO = -0.255828000766217  LUMO = -0.00860734888748369
  mo_energy =
[-1.01898774e+01 -1.01897286e+01 -1.01897251e+01 -1.01893384e+01
 -1.01893347e+01 -1.01892245e+01 -8.46181955e-01 -7.37068387e-01
 -7.37020308e-01 -5.95590113e-01 -5.95575863e-01 -5.20341491e-01
 -4.54402982e-01 -4.47431205e-01 -4.21173881e-01 -4.21081498e-01
 -3.68514443e-01 -3.44944725e-01 -3.44851114e-01 -2.55859381e-01
 -2.55828001e-01 -8.60734889e-03 -8.58882066e-03  5.78952461e-02
  9.94448673e-02  9.94618337e-02  1.37479454e-01  1.37479716e-01
  1.48784964e-01  1.58247627e-01  2.86570340e-01  2.86627365e-01
  3.00138774e-01  3.00196840e-01  3.65649061e-01  4.09388467e-01
  4.19435089e-01  4.19483939e-01  4.33802432e-01  4.61946155e-01
  4.70190073e-01  5.04248694e-01  5.04287681e-01  5.38274862e-01
  5.38275093e-01  5.40150054e-01  6.01715080e-01  6.01724156e-01
  6.35179523e-01  6.35188010e-01  6.69715255e-01  6.69721870e-01
  6.73034886e-01  7.23411170e-01  7.23508721e-01  7.35954502e-01
  7.39815547e-01  7.72783097e-01  7.72850505e-01  8.32494407e-01
  8.92285656e-01  1.02275701e+00  1.02284527e+00  1.15659724e+00
  1.24581940e+00  1.24591310e+00  1.25195728e+00  1.26547053e+00
  1.26561545e+00  1.30693629e+00  1.30703601e+00  1.51408856e+00
  1.64162303e+00  1.64487388e+00  1.66803918e+00  1.73998868e+00
  1.74620547e+00  1.74636886e+00  1.75523759e+00  1.75525908e+00
  1.75669344e+00  1.75678156e+00  1.82435302e+00  1.82437208e+00
  1.92911209e+00  1.98001317e+00  1.98003203e+00  1.98012193e+00
  1.98248130e+00  1.98267358e+00  2.11282492e+00  2.13319513e+00
  2.13894821e+00  2.13905718e+00  2.30009974e+00  2.30033154e+00
  2.30580902e+00  2.30584013e+00  2.34686354e+00  2.34702203e+00
  2.55496393e+00  2.59818774e+00  2.59831369e+00  2.64484145e+00
  2.71788082e+00  2.71794860e+00  2.71805956e+00  2.85912867e+00
  2.85931390e+00  2.88783221e+00  3.11644266e+00  3.11660803e+00
  3.24227309e+00  3.65354067e+00]
nelec by numeric integration = 42.00002633209883
    CPU time for vxc      2.77 sec, wall time      1.78 sec
E1 = -712.457323247797  Ecoul = 312.352707860036  Exc = -34.71691347532966
cycle= 3 E= -232.084669353879  delta_E= -0.0352  |g|= 0.0171  |ddm|= 0.446
    CPU time for cycle= 3      2.99 sec, wall time      1.88 sec
  HOMO = -0.256365154706049  LUMO = -0.00960559614934853
  mo_energy =
[-1.01929371e+01 -1.01927955e+01 -1.01927731e+01 -1.01924025e+01
 -1.01923794e+01 -1.01922765e+01 -8.45438105e-01 -7.37788834e-01
 -7.37731420e-01 -5.97527743e-01 -5.97515400e-01 -5.21853611e-01
 -4.57481107e-01 -4.49028256e-01 -4.22402694e-01 -4.22302037e-01
 -3.68651665e-01 -3.46950489e-01 -3.46858989e-01 -2.56406191e-01
 -2.56365155e-01 -9.60559615e-03 -9.58035710e-03  5.70868059e-02
  9.84853237e-02  9.85051053e-02  1.36239632e-01  1.36241428e-01
  1.47422392e-01  1.57113171e-01  2.86025962e-01  2.86080846e-01
  2.98659995e-01  2.98720347e-01  3.65949313e-01  4.07958316e-01
  4.18924342e-01  4.18977866e-01  4.33060992e-01  4.61355072e-01
  4.70148671e-01  5.03124216e-01  5.03160952e-01  5.37858508e-01
  5.37866742e-01  5.37907315e-01  6.00914028e-01  6.00929982e-01
  6.33202491e-01  6.33214968e-01  6.67875418e-01  6.67887993e-01
  6.72040688e-01  7.23246425e-01  7.23340548e-01  7.34523186e-01
  7.39124204e-01  7.71345607e-01  7.71418844e-01  8.32723399e-01
  8.90369754e-01  1.02241034e+00  1.02250148e+00  1.15503936e+00
  1.24409936e+00  1.24419866e+00  1.25103894e+00  1.26435894e+00
  1.26450426e+00  1.30526686e+00  1.30536494e+00  1.51251933e+00
  1.64057027e+00  1.64332430e+00  1.66609739e+00  1.73908343e+00
  1.74490212e+00  1.74507131e+00  1.75377760e+00  1.75380323e+00
  1.75470509e+00  1.75479614e+00  1.82248036e+00  1.82249763e+00
  1.92801824e+00  1.97871546e+00  1.97890042e+00  1.97901460e+00
  1.98097009e+00  1.98116487e+00  2.11073017e+00  2.13148969e+00
  2.13753987e+00  2.13765435e+00  2.29878459e+00  2.29902415e+00
  2.30482321e+00  2.30485559e+00  2.34629868e+00  2.34645009e+00
  2.55440688e+00  2.59639663e+00  2.59653043e+00  2.64314223e+00
  2.71607481e+00  2.71609250e+00  2.71621049e+00  2.85813186e+00
  2.85832457e+00  2.88617505e+00  3.11535758e+00  3.11551725e+00
  3.24074789e+00  3.65238991e+00]
nelec by numeric integration = 42.00002614770895
    CPU time for vxc      3.16 sec, wall time      1.42 sec
E1 = -712.443393162014  Ecoul = 312.3422096829413  Exc = -34.7204041327867
cycle= 4 E= -232.084728102648  delta_E= -5.87e-05  |g|= 0.00466  |ddm|= 0.0403
    CPU time for cycle= 4      3.37 sec, wall time      1.50 sec
  HOMO = -0.256024949297487  LUMO = -0.00915717898462092
  mo_energy =
[-1.01918851e+01 -1.01917345e+01 -1.01917305e+01 -1.01913414e+01
 -1.01913371e+01 -1.01912251e+01 -8.45291221e-01 -7.37337685e-01
 -7.37291350e-01 -5.96881070e-01 -5.96868560e-01 -5.21447323e-01
 -4.56739337e-01 -4.48465907e-01 -4.22080737e-01 -4.21989899e-01
 -3.68403348e-01 -3.46455187e-01 -3.46363655e-01 -2.56055613e-01
 -2.56024949e-01 -9.15717898e-03 -9.13942691e-03  5.73018057e-02
  9.87065291e-02  9.87216940e-02  1.36527714e-01  1.36529184e-01
  1.47948421e-01  1.57374379e-01  2.86314862e-01  2.86370308e-01
  2.99150603e-01  2.99208511e-01  3.66007308e-01  4.08354063e-01
  4.19114192e-01  4.19162003e-01  4.33305571e-01  4.61648285e-01
  4.70384397e-01  5.03468873e-01  5.03506903e-01  5.38155240e-01
  5.38155795e-01  5.38513647e-01  6.01276633e-01  6.01285207e-01
  6.33750383e-01  6.33756818e-01  6.68369695e-01  6.68374728e-01
  6.72413673e-01  7.23491609e-01  7.23589143e-01  7.34951180e-01
  7.39377115e-01  7.71836487e-01  7.71903674e-01  8.32882903e-01
  8.90948248e-01  1.02257605e+00  1.02266333e+00  1.15545993e+00
  1.24454766e+00  1.24463857e+00  1.25149864e+00  1.26464677e+00
  1.26478975e+00  1.30574659e+00  1.30584413e+00  1.51288096e+00
  1.64091842e+00  1.64381239e+00  1.66652992e+00  1.73958378e+00
  1.74531467e+00  1.74547554e+00  1.75424478e+00  1.75426725e+00
  1.75521161e+00  1.75529810e+00  1.82295074e+00  1.82296747e+00
  1.92833242e+00  1.97910309e+00  1.97923826e+00  1.97934503e+00
  1.98139763e+00  1.98158893e+00  2.11119628e+00  2.13195898e+00
  2.13810086e+00  2.13820967e+00  2.29934257e+00  2.29957389e+00
  2.30525098e+00  2.30528172e+00  2.34658071e+00  2.34674050e+00
  2.55468962e+00  2.59705495e+00  2.59718031e+00  2.64378783e+00
  2.71655795e+00  2.71659638e+00  2.71670470e+00  2.85861316e+00
  2.85879741e+00  2.88676726e+00  3.11577841e+00  3.11594553e+00
  3.24132072e+00  3.65288838e+00]
nelec by numeric integration = 42.00002620183635
    CPU time for vxc      3.38 sec, wall time      1.36 sec
E1 = -712.430139966718  Ecoul = 312.32689943577407  Exc = -34.71835252197266
cycle= 5 E= -232.084733543705  delta_E= -5.44e-06  |g|= 9.53e-05  |ddm|= 0.00658
    CPU time for cycle= 5      3.59 sec, wall time      1.42 sec
  HOMO = -0.256002705871491  LUMO = -0.00914771152148185
  mo_energy =
[-1.01918707e+01 -1.01917309e+01 -1.01917044e+01 -1.01913376e+01
 -1.01913101e+01 -1.01912091e+01 -8.45269558e-01 -7.37325775e-01
 -7.37266037e-01 -5.96865154e-01 -5.96852543e-01 -5.21429339e-01
 -4.56723585e-01 -4.48452463e-01 -4.22069099e-01 -4.21966492e-01
 -3.68386760e-01 -3.46440908e-01 -3.46348924e-01 -2.56045649e-01
 -2.56002706e-01 -9.14771152e-03 -9.12110389e-03  5.73111962e-02
  9.87115281e-02  9.87324510e-02  1.36534393e-01  1.36537116e-01
  1.47962451e-01  1.57382383e-01  2.86327543e-01  2.86382833e-01
  2.99161031e-01  2.99221757e-01  3.66018504e-01  4.08361060e-01
  4.19119966e-01  4.19174672e-01  4.33320348e-01  4.61661303e-01
  4.70397581e-01  5.03479077e-01  5.03515883e-01  5.38161691e-01
  5.38171506e-01  5.38523743e-01  6.01283460e-01  6.01300698e-01
  6.33758926e-01  6.33772820e-01  6.68376848e-01  6.68391029e-01
  6.72424859e-01  7.23506782e-01  7.23600574e-01  7.34965187e-01
  7.39392369e-01  7.71843703e-01  7.71918057e-01  8.32896328e-01
  8.90958664e-01  1.02258690e+00  1.02267896e+00  1.15547549e+00
  1.24455747e+00  1.24465881e+00  1.25151178e+00  1.26465562e+00
  1.26480184e+00  1.30575979e+00  1.30585847e+00  1.51289215e+00
  1.64093575e+00  1.64382700e+00  1.66654225e+00  1.73959893e+00
  1.74532715e+00  1.74549831e+00  1.75425558e+00  1.75428140e+00
  1.75522163e+00  1.75531395e+00  1.82296286e+00  1.82298087e+00
  1.92834789e+00  1.97911827e+00  1.97924920e+00  1.97936506e+00
  1.98141178e+00  1.98160736e+00  2.11120785e+00  2.13197533e+00
  2.13811132e+00  2.13822677e+00  2.29935103e+00  2.29959201e+00
  2.30526794e+00  2.30530072e+00  2.34660297e+00  2.34675283e+00
  2.55470721e+00  2.59706382e+00  2.59719925e+00  2.64380030e+00
  2.71657578e+00  2.71660887e+00  2.71672905e+00  2.85862587e+00
  2.85882010e+00  2.88678192e+00  3.11580326e+00  3.11596138e+00
  3.24133721e+00  3.65290886e+00]
nelec by numeric integration = 42.00002620251793
    CPU time for vxc      3.42 sec, wall time      1.30 sec
E1 = -712.4296452725507  Ecoul = 312.326362700619  Exc = -34.718310481994855
cycle= 6 E= -232.084733544715  delta_E= -1.01e-09  |g|= 7.97e-05  |ddm|= 0.000232
    CPU time for cycle= 6      3.63 sec, wall time      1.38 sec
  HOMO = -0.256006088404482  LUMO = -0.00914453730006478
  mo_energy =
[-1.01918700e+01 -1.01917211e+01 -1.01917137e+01 -1.01913278e+01
 -1.01913205e+01 -1.01912100e+01 -8.45269145e-01 -7.37321233e-01
 -7.37269989e-01 -5.96865007e-01 -5.96852412e-01 -5.21429374e-01
 -4.56723756e-01 -4.48452227e-01 -4.22065436e-01 -4.21970254e-01
 -3.68386225e-01 -3.46440847e-01 -3.46349112e-01 -2.56041262e-01
 -2.56006088e-01 -9.14453730e-03 -9.12351340e-03  5.73111636e-02
  9.87132690e-02  9.87305682e-02  1.36535550e-01  1.36535818e-01
  1.47962766e-01  1.57382322e-01  2.86327628e-01  2.86383022e-01
  2.99162006e-01  2.99220961e-01  3.66018875e-01  4.08361059e-01
  4.19122334e-01  4.19172687e-01  4.33320274e-01  4.61661440e-01
  4.70398102e-01  5.03478756e-01  5.03516353e-01  5.38165381e-01
  5.38168644e-01  5.38523717e-01  6.01286527e-01  6.01298293e-01
  6.33761170e-01  6.33770377e-01  6.68379664e-01  6.68388093e-01
  6.72425108e-01  7.23505825e-01  7.23602005e-01  7.34965172e-01
  7.39392443e-01  7.71846048e-01  7.71915878e-01  8.32896618e-01
  8.90958690e-01  1.02258858e+00  1.02267762e+00  1.15547544e+00
  1.24456068e+00  1.24465546e+00  1.25151221e+00  1.26465662e+00
  1.26480082e+00  1.30576017e+00  1.30585816e+00  1.51289193e+00
  1.64093574e+00  1.64382700e+00  1.66654203e+00  1.73959937e+00
  1.74533037e+00  1.74549505e+00  1.75425675e+00  1.75428043e+00
  1.75522330e+00  1.75531197e+00  1.82296310e+00  1.82298034e+00
  1.92834782e+00  1.97911812e+00  1.97925204e+00  1.97936217e+00
  1.98141301e+00  1.98160591e+00  2.11120755e+00  2.13197517e+00
  2.13811369e+00  2.13822493e+00  2.29935443e+00  2.29958931e+00
  2.30526862e+00  2.30530010e+00  2.34660002e+00  2.34675614e+00
  2.55470738e+00  2.59706720e+00  2.59719627e+00  2.64380064e+00
  2.71657574e+00  2.71661232e+00  2.71672501e+00  2.85862914e+00
  2.85881707e+00  2.88678206e+00  3.11580046e+00  3.11596425e+00
  3.24133726e+00  3.65290899e+00]
nelec by numeric integration = 42.000026202666746
    CPU time for vxc      3.52 sec, wall time      1.32 sec
E1 = -712.4296316553255  Ecoul = 312.3263486154502  Exc = -34.71831001563737
cycle= 7 E= -232.084733546301  delta_E= -1.59e-09  |g|= 8.32e-06  |ddm|= 8.09e-05
    CPU time for cycle= 7      3.73 sec, wall time      1.40 sec
  HOMO = -0.256005686512983  LUMO = -0.00914451930753171
  mo_energy =
[-1.01918704e+01 -1.01917219e+01 -1.01917135e+01 -1.01913285e+01
 -1.01913203e+01 -1.01912103e+01 -8.45269152e-01 -7.37321485e-01
 -7.37269849e-01 -5.96865159e-01 -5.96852576e-01 -5.21429776e-01
 -4.56724251e-01 -4.48452224e-01 -4.22066014e-01 -4.21970498e-01
 -3.68385980e-01 -3.46441201e-01 -3.46349464e-01 -2.56041217e-01
 -2.56005687e-01 -9.14451931e-03 -9.12324435e-03  5.73109450e-02
  9.87129587e-02  9.87304191e-02  1.36535307e-01  1.36535635e-01
  1.47962837e-01  1.57382107e-01  2.86327528e-01  2.86382915e-01
  2.99161839e-01  2.99220873e-01  3.66019048e-01  4.08360941e-01
  4.19122257e-01  4.19172808e-01  4.33319893e-01  4.61661328e-01
  4.70398408e-01  5.03478680e-01  5.03516236e-01  5.38165467e-01
  5.38169028e-01  5.38523502e-01  6.01286549e-01  6.01298563e-01
  6.33760724e-01  6.33770137e-01  6.68379240e-01  6.68387924e-01
  6.72425166e-01  7.23505863e-01  7.23601929e-01  7.34964874e-01
  7.39392231e-01  7.71845831e-01  7.71915865e-01  8.32896655e-01
  8.90958529e-01  1.02258843e+00  1.02267761e+00  1.15547509e+00
  1.24456018e+00  1.24465525e+00  1.25151240e+00  1.26465636e+00
  1.26480065e+00  1.30575993e+00  1.30585794e+00  1.51289148e+00
  1.64093538e+00  1.64382672e+00  1.66654156e+00  1.73959957e+00
  1.74532986e+00  1.74549482e+00  1.75425657e+00  1.75428035e+00
  1.75522279e+00  1.75531162e+00  1.82296269e+00  1.82297995e+00
  1.92834745e+00  1.97911767e+00  1.97925157e+00  1.97936197e+00
  1.98141251e+00  1.98160552e+00  2.11120701e+00  2.13197467e+00
  2.13811361e+00  2.13822506e+00  2.29935442e+00  2.29958958e+00
  2.30526825e+00  2.30529980e+00  2.34659999e+00  2.34675583e+00
  2.55470720e+00  2.59706701e+00  2.59719637e+00  2.64380076e+00
  2.71657507e+00  2.71661157e+00  2.71672464e+00  2.85862877e+00
  2.85881698e+00  2.88678192e+00  3.11580020e+00  3.11596374e+00
  3.24133699e+00  3.65290873e+00]
nelec by numeric integration = 42.0000262026657
    CPU time for vxc      3.56 sec, wall time      1.30 sec
E1 = -712.4296274311963  Ecoul = 312.3263447380032  Exc = -34.71831036232636
cycle= 8 E= -232.084733546308  delta_E= -6.82e-12  |g|= 6.72e-06  |ddm|= 1.59e-05
    CPU time for cycle= 8      3.78 sec, wall time      1.37 sec
  HOMO = -0.256005457568246  LUMO = -0.00914460212470891
  mo_energy =
[-1.01918703e+01 -1.01917223e+01 -1.01917130e+01 -1.01913289e+01
 -1.01913198e+01 -1.01912102e+01 -8.45269111e-01 -7.37321635e-01
 -7.37269610e-01 -5.96865115e-01 -5.96852530e-01 -5.21429744e-01
 -4.56724215e-01 -4.48452175e-01 -4.22066156e-01 -4.21970297e-01
 -3.68385930e-01 -3.46441172e-01 -3.46349423e-01 -2.56041345e-01
 -2.56005458e-01 -9.14460212e-03 -9.12306958e-03  5.73109719e-02
  9.87128978e-02  9.87305255e-02  1.36535286e-01  1.36535703e-01
  1.47962881e-01  1.57382131e-01  2.86327565e-01  2.86382949e-01
  2.99161839e-01  2.99220953e-01  3.66019080e-01  4.08360978e-01
  4.19122188e-01  4.19172939e-01  4.33319922e-01  4.61661360e-01
  4.70398456e-01  5.03478731e-01  5.03516252e-01  5.38165362e-01
  5.38169226e-01  5.38523542e-01  6.01286466e-01  6.01298732e-01
  6.33760646e-01  6.33770276e-01  6.68379137e-01  6.68388086e-01
  6.72425208e-01  7.23505952e-01  7.23601909e-01  7.34964903e-01
  7.39392261e-01  7.71845764e-01  7.71916007e-01  8.32896688e-01
  8.90958566e-01  1.02258840e+00  1.02267771e+00  1.15547513e+00
  1.24456007e+00  1.24465544e+00  1.25151245e+00  1.26465635e+00
  1.26480073e+00  1.30575995e+00  1.30585800e+00  1.51289151e+00
  1.64093542e+00  1.64382676e+00  1.66654159e+00  1.73959962e+00
  1.74532975e+00  1.74549501e+00  1.75425656e+00  1.75428044e+00
  1.75522274e+00  1.75531174e+00  1.82296271e+00  1.82298001e+00
  1.92834748e+00  1.97911771e+00  1.97925147e+00  1.97936213e+00
  1.98141248e+00  1.98160562e+00  2.11120705e+00  2.13197470e+00
  2.13811356e+00  2.13822520e+00  2.29935433e+00  2.29958977e+00
  2.30526826e+00  2.30529986e+00  2.34660017e+00  2.34675573e+00
  2.55470723e+00  2.59706691e+00  2.59719656e+00  2.64380081e+00
  2.71657521e+00  2.71661142e+00  2.71672475e+00  2.85862867e+00
  2.85881717e+00  2.88678197e+00  3.11580037e+00  3.11596364e+00
  3.24133704e+00  3.65290877e+00]
nelec by numeric integration = 42.00002620266358
    CPU time for vxc      3.59 sec, wall time      1.38 sec
E1 = -712.4296269357062  Ecoul = 312.32634418185364  Exc = -34.71831030162699
Extra cycle  E= -232.084733546268  delta_E= 3.99e-11  |g|= 1.31e-05  |ddm|= 2.22e-05
    CPU time for scf_cycle     40.47 sec, wall time     20.69 sec
    CPU time for SCF     40.50 sec, wall time     20.70 sec
converged SCF energy = -232.084733546268
